      -----------------------------------------------------------      
     |                   =====================                   |     
     |                           x T B                           |     
     |                   =====================                   |     
     |                         S. Grimme                         |     
     |          Mulliken Center for Theoretical Chemistry        |     
     |                    University of Bonn                     |     
      -----------------------------------------------------------      

   * xtb version 6.7.1 (edcfbbe) compiled by 'albert@albert-system' on 2024-07-22

   xtb is free software: you can redistribute it and/or modify it under
   the terms of the GNU Lesser General Public License as published by
   the Free Software Foundation, either version 3 of the License, or
   (at your option) any later version.
   
   xtb is distributed in the hope that it will be useful,
   but WITHOUT ANY WARRANTY; without even the implied warranty of
   MERCHANTABILITY or FITNESS FOR A PARTICULAR PURPOSE.  See the
   GNU Lesser General Public License for more details.
   
   Cite this work as:
   * C. Bannwarth, E. Caldeweyher, S. Ehlert, A. Hansen, P. Pracht,
     J. Seibert, S. Spicher, S. Grimme, WIREs Comput. Mol. Sci., 2020, 11,
     e01493. DOI: 10.1002/wcms.1493
   
   for GFN2-xTB:
   * C. Bannwarth, S. Ehlert and S. Grimme., J. Chem. Theory Comput., 2019,
     15, 1652-1671. DOI: 10.1021/acs.jctc.8b01176
   for GFN1-xTB:
   * S. Grimme, C. Bannwarth, P. Shushkov, J. Chem. Theory Comput., 2017,
     13, 1989-2009. DOI: 10.1021/acs.jctc.7b00118
   for GFN0-xTB:
   * P. Pracht, E. Caldeweyher, S. Ehlert, S. Grimme, ChemRxiv, 2019, preprint.
     DOI: 10.26434/chemrxiv.8326202.v1
   for GFN-FF:
   * S. Spicher and S. Grimme, Angew. Chem. Int. Ed., 2020, 59, 15665-15673.
     DOI: 10.1002/anie.202004239
   
   for ALPB and GBSA implicit solvation:
   * S. Ehlert, M. Stahn, S. Spicher, S. Grimme, J. Chem. Theory Comput.,
     2021, 17, 4250-4261. DOI: 10.1021/acs.jctc.1c00471
   
   for ddCOSMO and CPCM-X implicit solvation:
   * M. Stahn, S. Ehlert, S. Grimme, J. Phys. Chem. A,
     2023, XX, XXXX-XXXX. DOI: 10.1021/acs.jpca.3c04382
   
   for DFT-D4:
   * E. Caldeweyher, C. Bannwarth and S. Grimme, J. Chem. Phys., 2017,
     147, 034112. DOI: 10.1063/1.4993215
   * E. Caldeweyher, S. Ehlert, A. Hansen, H. Neugebauer, S. Spicher,
     C. Bannwarth and S. Grimme, J. Chem. Phys., 2019, 150, 154122.
     DOI: 10.1063/1.5090222
   * E. Caldeweyher, J.-M. Mewes, S. Ehlert and S. Grimme, Phys. Chem. Chem. Phys.
     2020, 22, 8499-8512. DOI: 10.1039/D0CP00502A
   
   for sTDA-xTB:
   * S. Grimme and C. Bannwarth, J. Chem. Phys., 2016, 145, 054103.
     DOI: 10.1063/1.4959605
   
   in the mass-spec context:
   * V. Asgeirsson, C. Bauer and S. Grimme, Chem. Sci., 2017, 8, 4879.
     DOI: 10.1039/c7sc00601b
   * J. Koopman and S. Grimme, ACS Omega 2019, 4, 12, 15120-15133.
     DOI: 10.1021/acsomega.9b02011
   
   for metadynamics refer to:
   * S. Grimme, J. Chem. Theory Comput., 2019, 155, 2847-2862
     DOI: 10.1021/acs.jctc.9b00143
   
   for SPH calculations refer to:
   * S. Spicher and S. Grimme, J. Chem. Theory Comput., 2021, 17, 1701-1714
     DOI: 10.1021/acs.jctc.0c01306
   
   for ONIOM refer to:
   * C. Plett, A. Katbashev, S. Ehlert, S. Grimme, M. Bursch,
     Phys. Chem. Chem. Phys., 2023, 25, 17860-17868. DOI: 10.1039/D3CP02178E
   
   for DIPRO refer to:
   * J. Kohn, N. Gildemeister, S. Grimme, D. Fazzi, A. Hansen,
     J. Chem. Phys., 2023, just accepted.
   
   for PTB refer to:
   * S. Grimme, M. Mueller, A. Hansen, J. Chem. Phys., 2023, 158, 124111.
     DOI: 10.1063/5.0137838
   
   with help from (in alphabetical order)
   P. Atkinson, C. Bannwarth, F. Bohle, G. Brandenburg, E. Caldeweyher
   M. Checinski, S. Dohm, S. Ehlert, S. Ehrlich, I. Gerasimov, C. Hölzer
   A. Katbashev, J. Kohn, J. Koopman, C. Lavigne, S. Lehtola, F. März, M. Müller,
   F. Musil, H. Neugebauer, J. Pisarek, C. Plett, P. Pracht, F. Pultar,
   J. Seibert, P. Shushkov, S. Spicher, M. Stahn, M. Steiner, T. Strunk,
   J. Stückrath, T. Rose, and J. Unsleber
   
 * started run on 2025/12/01 at 14:23:21.588     
   ID    Z sym.   atoms
    1    6 C      1-3, 6, 7, 9, 12, 13, 15, 17-19, 22, 23, 25, 27-29
    2    8 O      4, 5, 10, 14, 16, 20, 24, 26, 30
    3    7 N      8, 11, 21
    4    1 H      31-51

           -------------------------------------------------
          |                Calculation Setup                |
           -------------------------------------------------

          program call               : xtb pipeline_data/3_conformer_xyz/acrylates/rdkit/YIJYFLXQHDOQGW-UHFFFAOYSA-N_conf207.xyz --opt --gfn 2-xTB --iterations 250
          coordinate file            : pipeline_data/3_conformer_xyz/acrylates/rdkit/YIJYFLXQHDOQGW-UHFFFAOYSA-N_conf207.xyz
          omp threads                :                    24

########################################################################
[WARNING] Please study the warnings concerning your input carefully
-1- readin_getIntValue: could not parse '2-xTB'
########################################################################

           -------------------------------------------------
          |                 G F N 2 - x T B                 |
           -------------------------------------------------

        Reference                      10.1021/acs.jctc.8b01176
      * Hamiltonian:
        H0-scaling (s, p, d)           1.850000    2.230000    2.230000
        zeta-weighting                 0.500000
      * Dispersion:
        s8                             2.700000
        a1                             0.520000
        a2                             5.000000
        s9                             5.000000
      * Repulsion:
        kExp                           1.500000    1.000000
        rExp                           1.000000
      * Coulomb:
        alpha                          2.000000
        third order                    shell-resolved
        anisotropic                    true
        a3                             3.000000
        a5                             4.000000
        cn-shift                       1.200000
        cn-exp                         4.000000
        max-rad                        5.000000

q/qsh data taken from xtbrestart
CAMM data taken from xtbrestart

          ...................................................
          :                      SETUP                      :
          :.................................................:
          :  # basis functions                 141          :
          :  # atomic orbitals                 141          :
          :  # shells                           81          :
          :  # electrons                       162          :
          :  max. iterations                   250          :
          :  Hamiltonian                  GFN2-xTB          :
          :  restarted?                       true          :
          :  GBSA solvation                  false          :
          :  PC potential                    false          :
          :  electronic temp.          300.0000000     K    :
          :  accuracy                    1.0000000          :
          :  -> integral cutoff          0.2500000E+02      :
          :  -> integral neglect         0.1000000E-07      :
          :  -> SCF convergence          0.1000000E-05 Eh   :
          :  -> wf. convergence          0.1000000E-03 e    :
          :  Broyden damping             0.4000000          :
          :  net charge                          0          :
          :  unpaired electrons                  0          :
          ...................................................

 iter      E             dE          RMSdq      gap      omega  full diag
   1    -95.5308575 -0.955309E+02  0.618E+00    2.93       0.0  T
   2    -95.5616064 -0.307489E-01  0.372E+00    3.19       1.0  T
   3    -95.5495528  0.120536E-01  0.709E-01    3.22       1.0  T
   4    -95.5676771 -0.181242E-01  0.278E-01    3.32       1.0  T
   5    -95.5691978 -0.152075E-02  0.137E-01    3.28       1.0  T
   6    -95.5692963 -0.984733E-04  0.767E-02    3.31       1.0  T
   7    -95.5694094 -0.113145E-03  0.153E-02    3.30       1.0  T
   8    -95.5694107 -0.130732E-05  0.870E-03    3.30       1.6  T
   9    -95.5694116 -0.858398E-06  0.495E-03    3.30       2.8  T
  10    -95.5694121 -0.520571E-06  0.150E-03    3.30       9.4  T
  11    -95.5694121 -0.237725E-07  0.719E-04    3.30      19.5  T
  12    -95.5694121 -0.379148E-08  0.241E-04    3.30      58.2  T

   *** convergence criteria satisfied after 12 iterations ***

         #    Occupation            Energy/Eh            Energy/eV
      -------------------------------------------------------------
         1        2.0000           -0.7727992             -21.0289
       ...           ...                  ...                  ...
        75        2.0000           -0.4476881             -12.1822
        76        2.0000           -0.4460894             -12.1387
        77        2.0000           -0.4457425             -12.1293
        78        2.0000           -0.4384266             -11.9302
        79        2.0000           -0.4227095             -11.5025
        80        2.0000           -0.4223426             -11.4925
        81        2.0000           -0.4196369             -11.4189 (HOMO)
        82                         -0.2982180              -8.1149 (LUMO)
        83                         -0.2955523              -8.0424
        84                         -0.2954437              -8.0394
        85                         -0.2824137              -7.6849
        86                         -0.2789983              -7.5919
       ...                                ...                  ...
       141                          0.6325313              17.2121
      -------------------------------------------------------------
                  HL-Gap            0.1214189 Eh            3.3040 eV
             Fermi-level           -0.3589275 Eh           -9.7669 eV

 SCC (total)                   0 d,  0 h,  0 min,  0.070 sec
 SCC setup                      ...        0 min,  0.000 sec (  0.354%)
 Dispersion                     ...        0 min,  0.001 sec (  0.955%)
 classical contributions        ...        0 min,  0.000 sec (  0.097%)
 integral evaluation            ...        0 min,  0.003 sec (  4.438%)
 iterations                     ...        0 min,  0.059 sec ( 83.494%)
 molecular gradient             ...        0 min,  0.007 sec ( 10.153%)
 printout                       ...        0 min,  0.000 sec (  0.459%)

         :::::::::::::::::::::::::::::::::::::::::::::::::::::
         ::                     SUMMARY                     ::
         :::::::::::::::::::::::::::::::::::::::::::::::::::::
         :: total energy             -94.604445146386 Eh    ::
         :: gradient norm              0.303256862238 Eh/a0 ::
         :: HOMO-LUMO gap              3.303975336013 eV    ::
         ::.................................................::
         :: SCC energy               -95.569757194029 Eh    ::
         :: -> isotropic ES            0.251670273335 Eh    ::
         :: -> anisotropic ES         -0.001284126861 Eh    ::
         :: -> anisotropic XC          0.014524098484 Eh    ::
         :: -> dispersion             -0.048450527503 Eh    ::
         :: repulsion energy           0.965312047643 Eh    ::
         :: add. restraining           0.000000000000 Eh    ::
         :: total charge              -0.000000000000 e     ::
         :::::::::::::::::::::::::::::::::::::::::::::::::::::

      ----------------------------------------------------------- 
     |                   =====================                   |
     |                        A N C O P T                        |
     |                   =====================                   |
     |               Approximate Normal Coordinate               |
     |                Rational Function Optimizer                |
      ----------------------------------------------------------- 
      ----------------------------------------------------------- 
     |                   =====================                   |
     |                        A N C O P T                        |
     |                   =====================                   |
     |               Approximate Normal Coordinate               |
     |                Rational Function Optimizer                |
      ----------------------------------------------------------- 

          ...................................................
          :                      SETUP                      :
          :.................................................:
          :   optimization level            normal          :
          :   max. optcycles                   200          :
          :   ANC micro-cycles                  20          :
          :   degrees of freedom               147          :
          :.................................................:
          :   RF solver                   davidson          :
          :   write xtbopt.log                true          :
          :   linear?                        false          :
          :   energy convergence         0.5000000E-05 Eh   :
          :   grad. convergence          0.1000000E-02 Eh/α :
          :   maxmium RF displ.          1.0000000          :
          :   Hlow (freq-cutoff)         0.1000000E-01      :
          :   Hmax (freq-cutoff)         5.0000000          :
          :   S6 in model hess.         20.0000000          :
          ...................................................

generating ANC from exact Hessian ...
Using Lindh-Hessian (1995)
 Shifting diagonal of input Hessian by   9.836632334835640E-003
 Lowest  eigenvalues of input Hessian
    0.000000    0.000000    0.000000    0.000000    0.000000    0.000000
    0.010000    0.010024    0.010070    0.010385    0.010404    0.010524
    0.010850    0.011020    0.011338    0.012631    0.012681    0.013176
 Highest eigenvalues
    2.141380    2.166914    2.171561    2.228892    2.556131    2.572277
 

........................................................................
.............................. CYCLE    1 ..............................
........................................................................

 iter      E             dE          RMSdq      gap      omega  full diag
   1    -95.5694121 -0.955694E+02  0.133E-04    3.30       0.0  T
   2    -95.5694121 -0.390941E-10  0.104E-04    3.30     134.6  T
   3    -95.5694121 -0.293028E-09  0.526E-05    3.30     266.0  T
     SCC iter.                  ...        0 min,  0.010 sec
     gradient                   ...        0 min,  0.008 sec
 * total energy  :   -94.6044451 Eh     change       -0.1247500E-08 Eh
   gradient norm :     0.3032580 Eh/α   predicted     0.0000000E+00 (-100.00%)
   displ. norm   :     0.3585403 α      lambda       -0.6521513E-01
   maximum displ.:     0.1095766 α      in ANC's #34, #75, #58, ...

........................................................................
.............................. CYCLE    2 ..............................
........................................................................

 iter      E             dE          RMSdq      gap      omega  full diag
   1    -95.6557677 -0.956558E+02  0.360E-01    3.44       0.0  T
   2    -95.6586627 -0.289491E-02  0.213E-01    3.51       1.0  T
   3    -95.6588775 -0.214813E-03  0.117E-01    3.52       1.0  T
   4    -95.6588271  0.503956E-04  0.539E-02    3.53       1.0  T
   5    -95.6589100 -0.829508E-04  0.150E-02    3.52       1.0  T
   6    -95.6589172 -0.714949E-05  0.558E-03    3.53       2.5  T
   7    -95.6589175 -0.292138E-06  0.141E-03    3.52       9.9  T
   8    -95.6589175 -0.857442E-08  0.723E-04    3.52      19.4  T
   9    -95.6589175 -0.292627E-08  0.251E-04    3.52      55.8  T
     SCC iter.                  ...        0 min,  0.029 sec
     gradient                   ...        0 min,  0.006 sec
 * total energy  :   -94.6518834 Eh     change       -0.4743829E-01 Eh
   gradient norm :     0.1328409 Eh/α   predicted    -0.3682001E-01 ( -22.38%)
   displ. norm   :     0.3625808 α      lambda       -0.2554071E-01
   maximum displ.:     0.1460043 α      in ANC's #34, #55, #46, ...

........................................................................
.............................. CYCLE    3 ..............................
........................................................................

 iter      E             dE          RMSdq      gap      omega  full diag
   1    -95.7086862 -0.957087E+02  0.333E-01    3.60       0.0  T
   2    -95.7106744 -0.198819E-02  0.189E-01    3.64       1.0  T
   3    -95.7107948 -0.120349E-03  0.101E-01    3.65       1.0  T
   4    -95.7107838  0.109289E-04  0.341E-02    3.66       1.0  T
   5    -95.7108185 -0.346656E-04  0.106E-02    3.66       1.3  T
   6    -95.7108217 -0.315260E-05  0.449E-03    3.66       3.1  T
   7    -95.7108219 -0.240296E-06  0.970E-04    3.65      14.4  T
   8    -95.7108219 -0.447727E-08  0.495E-04    3.65      28.3  T
     SCC iter.                  ...        0 min,  0.059 sec
     gradient                   ...        0 min,  0.015 sec
 * total energy  :   -94.6662910 Eh     change       -0.1440752E-01 Eh
   gradient norm :     0.0363635 Eh/α   predicted    -0.1445212E-01 (   0.31%)
   displ. norm   :     0.2474545 α      lambda       -0.3414667E-02
   maximum displ.:     0.1039303 α      in ANC's #34, #20, #22, ...

........................................................................
.............................. CYCLE    4 ..............................
........................................................................

 iter      E             dE          RMSdq      gap      omega  full diag
   1    -95.7067266 -0.957067E+02  0.129E-01    3.66       0.0  T
   2    -95.7067865 -0.599293E-04  0.768E-02    3.64       1.0  T
   3    -95.7067582  0.282804E-04  0.364E-02    3.65       1.0  T
   4    -95.7067898 -0.315412E-04  0.132E-02    3.64       1.1  T
   5    -95.7067966 -0.684873E-05  0.267E-03    3.64       5.2  T
   6    -95.7067967 -0.903561E-07  0.135E-03    3.64      10.4  T
   7    -95.7067967 -0.980167E-08  0.359E-04    3.64      39.0  T
   8    -95.7067967 -0.885535E-09  0.145E-04    3.64      96.6  T
     SCC iter.                  ...        0 min,  0.025 sec
     gradient                   ...        0 min,  0.009 sec
 * total energy  :   -94.6685030 Eh     change       -0.2212008E-02 Eh
   gradient norm :     0.0156455 Eh/α   predicted    -0.1811887E-02 ( -18.09%)
   displ. norm   :     0.2236783 α      lambda       -0.1051592E-02
   maximum displ.:     0.0908640 α      in ANC's #20, #11, #34, ...

........................................................................
.............................. CYCLE    5 ..............................
........................................................................

 iter      E             dE          RMSdq      gap      omega  full diag
   1    -95.7082456 -0.957082E+02  0.723E-02    3.64       0.0  T
   2    -95.7082694 -0.238159E-04  0.425E-02    3.63       1.0  T
   3    -95.7082664  0.303785E-05  0.168E-02    3.63       1.0  T
   4    -95.7082690 -0.257782E-05  0.796E-03    3.63       1.8  T
   5    -95.7082715 -0.252300E-05  0.157E-03    3.63       8.9  T
   6    -95.7082716 -0.418174E-07  0.739E-04    3.63      19.0  T
   7    -95.7082716 -0.282256E-08  0.208E-04    3.63      67.3  T
     SCC iter.                  ...        0 min,  0.027 sec
     gradient                   ...        0 min,  0.010 sec
 * total energy  :   -94.6691561 Eh     change       -0.6531676E-03 Eh
   gradient norm :     0.0068926 Eh/α   predicted    -0.5521023E-03 ( -15.47%)
   displ. norm   :     0.1978743 α      lambda       -0.4442231E-03
   maximum displ.:     0.0662260 α      in ANC's #11, #20, #8, ...

........................................................................
.............................. CYCLE    6 ..............................
........................................................................

 iter      E             dE          RMSdq      gap      omega  full diag
   1    -95.7106950 -0.957107E+02  0.545E-02    3.63       0.0  T
   2    -95.7107047 -0.964804E-05  0.321E-02    3.62       1.0  T
   3    -95.7107039  0.737257E-06  0.103E-02    3.62       1.4  T
   4    -95.7107053 -0.134132E-05  0.292E-03    3.62       4.8  T
   5    -95.7107055 -0.258919E-06  0.125E-03    3.62      11.2  T
   6    -95.7107056 -0.353242E-07  0.605E-04    3.62      23.1  T
   7    -95.7107056 -0.348852E-08  0.151E-04    3.62      92.8  T
     SCC iter.                  ...        0 min,  0.030 sec
     gradient                   ...        0 min,  0.007 sec
 * total energy  :   -94.6694085 Eh     change       -0.2524039E-03 Eh
   gradient norm :     0.0069321 Eh/α   predicted    -0.2308094E-03 (  -8.56%)
   displ. norm   :     0.1682695 α      lambda       -0.2406061E-03
   maximum displ.:     0.0636117 α      in ANC's #8, #10, #11, ...

........................................................................
.............................. CYCLE    7 ..............................
........................................................................

 iter      E             dE          RMSdq      gap      omega  full diag
   1    -95.7124582 -0.957125E+02  0.384E-02    3.63       0.0  T
   2    -95.7124601 -0.197788E-05  0.226E-02    3.63       1.0  T
   3    -95.7124597  0.450433E-06  0.518E-03    3.62       2.7  T
   4    -95.7124604 -0.678449E-06  0.160E-03    3.62       8.7  T
   5    -95.7124604 -0.674126E-07  0.831E-04    3.62      16.8  T
   6    -95.7124604 -0.121261E-07  0.400E-04    3.62      35.0  T
     SCC iter.                  ...        0 min,  0.019 sec
     gradient                   ...        0 min,  0.008 sec
 * total energy  :   -94.6695781 Eh     change       -0.1695911E-03 Eh
   gradient norm :     0.0058321 Eh/α   predicted    -0.1237196E-03 ( -27.05%)
   displ. norm   :     0.2220252 α      lambda       -0.2147814E-03
   maximum displ.:     0.0960997 α      in ANC's #8, #10, #7, ...

........................................................................
.............................. CYCLE    8 ..............................
........................................................................

 iter      E             dE          RMSdq      gap      omega  full diag
   1    -95.7130373 -0.957130E+02  0.490E-02    3.63       0.0  T
   2    -95.7130388 -0.147933E-05  0.289E-02    3.63       1.0  T
   3    -95.7130386  0.242230E-06  0.421E-03    3.63       3.3  T
   4    -95.7130390 -0.380287E-06  0.220E-03    3.63       6.4  T
   5    -95.7130391 -0.146834E-06  0.844E-04    3.63      16.6  T
   6    -95.7130391 -0.410429E-08  0.344E-04    3.63      40.7  T
     SCC iter.                  ...        0 min,  0.019 sec
     gradient                   ...        0 min,  0.012 sec
 * total energy  :   -94.6697347 Eh     change       -0.1565785E-03 Eh
   gradient norm :     0.0045508 Eh/α   predicted    -0.1126857E-03 ( -28.03%)
   displ. norm   :     0.2626997 α      lambda       -0.1851650E-03
   maximum displ.:     0.1187292 α      in ANC's #8, #10, #7, ...

........................................................................
.............................. CYCLE    9 ..............................
........................................................................

 iter      E             dE          RMSdq      gap      omega  full diag
   1    -95.7121280 -0.957121E+02  0.557E-02    3.63       0.0  T
   2    -95.7121296 -0.162043E-05  0.330E-02    3.63       1.0  T
   3    -95.7121293  0.373409E-06  0.480E-03    3.63       2.9  T
   4    -95.7121300 -0.705954E-06  0.196E-03    3.63       7.1  T
   5    -95.7121300 -0.787545E-07  0.107E-03    3.63      13.1  T
   6    -95.7121301 -0.144772E-07  0.451E-04    3.63      31.0  T
   7    -95.7121301 -0.250348E-08  0.122E-04    3.63     114.8  T
     SCC iter.                  ...        0 min,  0.022 sec
     gradient                   ...        0 min,  0.008 sec
 * total energy  :   -94.6698605 Eh     change       -0.1257949E-03 Eh
   gradient norm :     0.0041223 Eh/α   predicted    -0.9897263E-04 ( -21.32%)
   displ. norm   :     0.2206065 α      lambda       -0.1218651E-03
   maximum displ.:     0.0992133 α      in ANC's #8, #7, #10, ...

........................................................................
.............................. CYCLE   10 ..............................
........................................................................

 iter      E             dE          RMSdq      gap      omega  full diag
   1    -95.7113806 -0.957114E+02  0.460E-02    3.64       0.0  T
   2    -95.7113815 -0.885025E-06  0.273E-02    3.64       1.0  T
   3    -95.7113811  0.339880E-06  0.404E-03    3.64       3.5  T
   4    -95.7113817 -0.584081E-06  0.144E-03    3.64       9.8  T
   5    -95.7113818 -0.302102E-07  0.877E-04    3.64      16.0  T
   6    -95.7113818 -0.115698E-07  0.296E-04    3.64      47.3  T
     SCC iter.                  ...        0 min,  0.019 sec
     gradient                   ...        0 min,  0.007 sec
 * total energy  :   -94.6699405 Eh     change       -0.7994606E-04 Eh
   gradient norm :     0.0038257 Eh/α   predicted    -0.6390003E-04 ( -20.07%)
   displ. norm   :     0.1723639 α      lambda       -0.8027023E-04
   maximum displ.:     0.0788045 α      in ANC's #7, #8, #10, ...

........................................................................
.............................. CYCLE   11 ..............................
........................................................................

 iter      E             dE          RMSdq      gap      omega  full diag
   1    -95.7113577 -0.957114E+02  0.352E-02    3.65       0.0  T
   2    -95.7113581 -0.366183E-06  0.208E-02    3.64       1.0  T
   3    -95.7113579  0.149678E-06  0.283E-03    3.64       5.0  T
   4    -95.7113582 -0.255329E-06  0.114E-03    3.64      12.3  T
   5    -95.7113582 -0.279211E-07  0.589E-04    3.64      23.8  T
   6    -95.7113582 -0.297005E-08  0.192E-04    3.64      72.8  T
     SCC iter.                  ...        0 min,  0.019 sec
     gradient                   ...        0 min,  0.008 sec
 * total energy  :   -94.6699959 Eh     change       -0.5547364E-04 Eh
   gradient norm :     0.0030989 Eh/α   predicted    -0.4133098E-04 ( -25.49%)
   displ. norm   :     0.1469073 α      lambda       -0.5417135E-04
   maximum displ.:     0.0715346 α      in ANC's #7, #8, #2, ...

........................................................................
.............................. CYCLE   12 ..............................
........................................................................

 iter      E             dE          RMSdq      gap      omega  full diag
   1    -95.7118645 -0.957119E+02  0.305E-02    3.65       0.0  T
   2    -95.7118650 -0.485177E-06  0.180E-02    3.65       1.0  T
   3    -95.7118649  0.850551E-07  0.239E-03    3.65       5.8  T
   4    -95.7118650 -0.160599E-06  0.968E-04    3.65      14.5  T
   5    -95.7118651 -0.222434E-07  0.503E-04    3.65      27.8  T
     SCC iter.                  ...        0 min,  0.016 sec
     gradient                   ...        0 min,  0.007 sec
 * total energy  :   -94.6700337 Eh     change       -0.3776880E-04 Eh
   gradient norm :     0.0023307 Eh/α   predicted    -0.2767415E-04 ( -26.73%)
   displ. norm   :     0.1305779 α      lambda       -0.3776465E-04
   maximum displ.:     0.0664810 α      in ANC's #7, #2, #8, ...

........................................................................
.............................. CYCLE   13 ..............................
........................................................................

 iter      E             dE          RMSdq      gap      omega  full diag
   1    -95.7124292 -0.957124E+02  0.285E-02    3.65       0.0  T
   2    -95.7124296 -0.417318E-06  0.168E-02    3.65       1.0  T
   3    -95.7124295  0.121097E-06  0.240E-03    3.65       5.8  T
   4    -95.7124297 -0.209269E-06  0.623E-04    3.65      22.5  T
   5    -95.7124297 -0.390033E-08  0.417E-04    3.65      33.6  T
     SCC iter.                  ...        0 min,  0.016 sec
     gradient                   ...        0 min,  0.007 sec
 * total energy  :   -94.6700593 Eh     change       -0.2561171E-04 Eh
   gradient norm :     0.0019950 Eh/α   predicted    -0.1920909E-04 ( -25.00%)
   displ. norm   :     0.1850543 α      lambda       -0.3031633E-04
   maximum displ.:     0.0951125 α      in ANC's #7, #2, #8, ...

........................................................................
.............................. CYCLE   14 ..............................
........................................................................

 iter      E             dE          RMSdq      gap      omega  full diag
   1    -95.7127842 -0.957128E+02  0.424E-02    3.65       0.0  T
   2    -95.7127848 -0.531944E-06  0.250E-02    3.65       1.0  T
   3    -95.7127847  0.113369E-06  0.264E-03    3.65       5.3  T
   4    -95.7127849 -0.262607E-06  0.834E-04    3.65      16.8  T
   5    -95.7127849 -0.395035E-08  0.516E-04    3.65      27.2  T
     SCC iter.                  ...        0 min,  0.016 sec
     gradient                   ...        0 min,  0.007 sec
 * total energy  :   -94.6700853 Eh     change       -0.2603553E-04 Eh
   gradient norm :     0.0026268 Eh/α   predicted    -0.1539145E-04 ( -40.88%)
   displ. norm   :     0.0856226 α      lambda       -0.2494308E-04
   maximum displ.:     0.0431314 α      in ANC's #7, #2, #5, ...

........................................................................
.............................. CYCLE   15 ..............................
........................................................................

 iter      E             dE          RMSdq      gap      omega  full diag
   1    -95.7129242 -0.957129E+02  0.207E-02    3.66       0.0  T
   2    -95.7129244 -0.136405E-06  0.122E-02    3.66       1.1  T
   3    -95.7129243  0.414679E-07  0.144E-03    3.66       9.8  T
   4    -95.7129244 -0.728593E-07  0.568E-04    3.66      24.7  T
   5    -95.7129244 -0.784131E-08  0.313E-04    3.66      44.8  T
     SCC iter.                  ...        0 min,  0.016 sec
     gradient                   ...        0 min,  0.006 sec
 * total energy  :   -94.6701060 Eh     change       -0.2065832E-04 Eh
   gradient norm :     0.0025069 Eh/α   predicted    -0.1256604E-04 ( -39.17%)
   displ. norm   :     0.1993038 α      lambda       -0.5325392E-04
   maximum displ.:     0.0964746 α      in ANC's #7, #2, #5, ...

........................................................................
.............................. CYCLE   16 ..............................
........................................................................

 iter      E             dE          RMSdq      gap      omega  full diag
   1    -95.7124281 -0.957124E+02  0.474E-02    3.66       0.0  T
   2    -95.7124289 -0.729730E-06  0.279E-02    3.66       1.0  T
   3    -95.7124286  0.286106E-06  0.352E-03    3.66       4.0  T
   4    -95.7124290 -0.409688E-06  0.155E-03    3.66       9.1  T
   5    -95.7124291 -0.746251E-07  0.616E-04    3.66      22.7  T
   6    -95.7124291 -0.222443E-08  0.281E-04    3.66      49.8  T
     SCC iter.                  ...        0 min,  0.071 sec
     gradient                   ...        0 min,  0.024 sec
 * total energy  :   -94.6701420 Eh     change       -0.3602364E-04 Eh
   gradient norm :     0.0022582 Eh/α   predicted    -0.2768677E-04 ( -23.14%)
   displ. norm   :     0.1525745 α      lambda       -0.2647368E-04
   maximum displ.:     0.0713928 α      in ANC's #7, #2, #5, ...

........................................................................
.............................. CYCLE   17 ..............................
........................................................................

 iter      E             dE          RMSdq      gap      omega  full diag
   1    -95.7123036 -0.957123E+02  0.364E-02    3.66       0.0  T
   2    -95.7123039 -0.302294E-06  0.214E-02    3.66       1.0  T
   3    -95.7123039  0.202601E-07  0.193E-03    3.66       7.2  T
   4    -95.7123040 -0.105156E-06  0.958E-04    3.66      14.6  T
   5    -95.7123040 -0.200972E-07  0.490E-04    3.66      28.6  T
     SCC iter.                  ...        0 min,  0.019 sec
     gradient                   ...        0 min,  0.006 sec
 * total energy  :   -94.6701587 Eh     change       -0.1666074E-04 Eh
   gradient norm :     0.0022023 Eh/α   predicted    -0.1354633E-04 ( -18.69%)
   displ. norm   :     0.1111854 α      lambda       -0.1731888E-04
   maximum displ.:     0.0549882 α      in ANC's #2, #7, #5, ...

........................................................................
.............................. CYCLE   18 ..............................
........................................................................

 iter      E             dE          RMSdq      gap      omega  full diag
   1    -95.7120872 -0.957121E+02  0.252E-02    3.66       0.0  T
   2    -95.7120873 -0.160838E-06  0.149E-02    3.66       1.0  T
   3    -95.7120870  0.358572E-06  0.303E-03    3.66       4.6  T
   4    -95.7120874 -0.420584E-06  0.692E-04    3.66      20.2  T
   5    -95.7120874 -0.106429E-07  0.315E-04    3.66      44.5  T
     SCC iter.                  ...        0 min,  0.016 sec
     gradient                   ...        0 min,  0.006 sec
 * total energy  :   -94.6701706 Eh     change       -0.1192288E-04 Eh
   gradient norm :     0.0014536 Eh/α   predicted    -0.8769081E-05 ( -26.45%)
   displ. norm   :     0.1349107 α      lambda       -0.1559254E-04
   maximum displ.:     0.0701609 α      in ANC's #2, #7, #5, ...

........................................................................
.............................. CYCLE   19 ..............................
........................................................................

 iter      E             dE          RMSdq      gap      omega  full diag
   1    -95.7125665 -0.957126E+02  0.298E-02    3.65       0.0  T
   2    -95.7125667 -0.270699E-06  0.176E-02    3.65       1.0  T
   3    -95.7125665  0.238153E-06  0.275E-03    3.65       5.1  T
   4    -95.7125668 -0.300755E-06  0.978E-04    3.65      14.3  T
   5    -95.7125668 -0.267373E-07  0.441E-04    3.65      31.7  T
     SCC iter.                  ...        0 min,  0.016 sec
     gradient                   ...        0 min,  0.006 sec
 * total energy  :   -94.6701850 Eh     change       -0.1438787E-04 Eh
   gradient norm :     0.0017711 Eh/α   predicted    -0.7862413E-05 ( -45.35%)
   displ. norm   :     0.1041039 α      lambda       -0.1290053E-04
   maximum displ.:     0.0557733 α      in ANC's #2, #5, #7, ...

........................................................................
.............................. CYCLE   20 ..............................
........................................................................

 iter      E             dE          RMSdq      gap      omega  full diag
   1    -95.7123945 -0.957124E+02  0.222E-02    3.65       0.0  T
   2    -95.7123948 -0.265258E-06  0.131E-02    3.65       1.1  T
   3    -95.7123945  0.296121E-06  0.294E-03    3.65       4.8  T
   4    -95.7123948 -0.338155E-06  0.923E-04    3.65      15.2  T
   5    -95.7123949 -0.291449E-07  0.340E-04    3.65      41.2  T
     SCC iter.                  ...        0 min,  0.016 sec
     gradient                   ...        0 min,  0.006 sec
 * total energy  :   -94.6701955 Eh     change       -0.1053381E-04 Eh
   gradient norm :     0.0021646 Eh/α   predicted    -0.6485563E-05 ( -38.43%)
   displ. norm   :     0.0751091 α      lambda       -0.1601116E-04
   maximum displ.:     0.0403025 α      in ANC's #2, #5, #7, ...
 * RMSD in coord.:     0.3638159 α      energy gain  -0.6575038E-01 Eh

generating ANC from exact Hessian ...
Using Lindh-Hessian (1995)
 Shifting diagonal of input Hessian by   9.830802788116121E-003
 Lowest  eigenvalues of input Hessian
    0.000000    0.000000    0.000000    0.000000    0.000000    0.000000
    0.010000    0.010039    0.010059    0.010425    0.010470    0.010596
    0.010899    0.011167    0.011528    0.012549    0.012847    0.013400
 Highest eigenvalues
    2.386959    2.398048    2.398286    2.398571    2.582196    2.587033
 

........................................................................
.............................. CYCLE   21 ..............................
........................................................................

 iter      E             dE          RMSdq      gap      omega  full diag
   1    -95.7126884 -0.957127E+02  0.175E-02    3.65       0.0  T
   2    -95.7126885 -0.823377E-07  0.103E-02    3.65       1.4  T
   3    -95.7126884  0.381407E-07  0.138E-03    3.65      10.2  T
   4    -95.7126885 -0.689992E-07  0.545E-04    3.65      25.7  T
   5    -95.7126885 -0.480895E-08  0.302E-04    3.65      46.4  T
     SCC iter.                  ...        0 min,  0.016 sec
     gradient                   ...        0 min,  0.007 sec
 * total energy  :   -94.6702074 Eh     change       -0.1185078E-04 Eh
   gradient norm :     0.0014946 Eh/α   predicted     0.0000000E+00 (-100.00%)
   displ. norm   :     0.0238780 α      lambda       -0.5102232E-05
   maximum displ.:     0.0102957 α      in ANC's #2, #19, #8, ...

........................................................................
.............................. CYCLE   22 ..............................
........................................................................

 iter      E             dE          RMSdq      gap      omega  full diag
   1    -95.7126326 -0.957126E+02  0.842E-03    3.65       0.0  T
   2    -95.7126327 -0.994112E-07  0.505E-03    3.65       2.8  T
   3    -95.7126326  0.569234E-07  0.147E-03    3.65       9.5  T
   4    -95.7126327 -0.698709E-07  0.441E-04    3.65      31.8  T
   5    -95.7126327 -0.760510E-08  0.153E-04    3.65      91.2  T
     SCC iter.                  ...        0 min,  0.016 sec
     gradient                   ...        0 min,  0.006 sec
 * total energy  :   -94.6702142 Eh     change       -0.6787763E-05 Eh
   gradient norm :     0.0006567 Eh/α   predicted    -0.3209505E-05 ( -52.72%)
   displ. norm   :     0.0523023 α      lambda       -0.7997604E-05
   maximum displ.:     0.0248474 α      in ANC's #2, #8, #19, ...

........................................................................
.............................. CYCLE   23 ..............................
........................................................................

 iter      E             dE          RMSdq      gap      omega  full diag
   1    -95.7124631 -0.957125E+02  0.153E-02    3.66       0.0  T
   2    -95.7124633 -0.186338E-06  0.908E-03    3.66       1.5  T
   3    -95.7124632  0.811015E-07  0.175E-03    3.66       8.0  T
   4    -95.7124633 -0.107496E-06  0.562E-04    3.66      24.9  T
   5    -95.7124634 -0.105052E-07  0.262E-04    3.66      53.4  T
     SCC iter.                  ...        0 min,  0.016 sec
     gradient                   ...        0 min,  0.006 sec
 * total energy  :   -94.6702199 Eh     change       -0.5765055E-05 Eh
   gradient norm :     0.0011756 Eh/α   predicted    -0.4005494E-05 ( -30.52%)
   displ. norm   :     0.0380080 α      lambda       -0.4306512E-05
   maximum displ.:     0.0205491 α      in ANC's #2, #8, #6, ...

........................................................................
.............................. CYCLE   24 ..............................
........................................................................

 iter      E             dE          RMSdq      gap      omega  full diag
   1    -95.7124479 -0.957124E+02  0.107E-02    3.66       0.0  T
   2    -95.7124479 -0.314154E-07  0.634E-03    3.66       2.2  T
   3    -95.7124479  0.820123E-08  0.718E-04    3.66      19.5  T
   4    -95.7124479 -0.180232E-07  0.303E-04    3.66      46.2  T
     SCC iter.                  ...        0 min,  0.013 sec
     gradient                   ...        0 min,  0.006 sec
 * total energy  :   -94.6702245 Eh     change       -0.4531768E-05 Eh
   gradient norm :     0.0009874 Eh/α   predicted    -0.2156102E-05 ( -52.42%)
   displ. norm   :     0.0615523 α      lambda       -0.5366197E-05
   maximum displ.:     0.0338828 α      in ANC's #2, #8, #6, ...

   *** GEOMETRY OPTIMIZATION CONVERGED AFTER 24 ITERATIONS ***

------------------------------------------------------------------------
 total energy gain   :        -0.0657793 Eh      -41.2771 kcal/mol
 total RMSD          :         0.3658977 a0        0.1936 Å
 total power (kW/mol):        -7.1959825 (step) -197.1662 (real)
------------------------------------------------------------------------

 ANCopt (total)                0 d,  0 h,  0 min,  0.876 sec
 optimizer setup                ...        0 min,  0.000 sec (  0.014%)
 model hessian                  ...        0 min,  0.036 sec (  4.083%)
 ANC generation                 ...        0 min,  0.003 sec (  0.395%)
 coordinate transformation      ...        0 min,  0.001 sec (  0.076%)
 single point calculation       ...        0 min,  0.811 sec ( 92.608%)
 optimization log               ...        0 min,  0.014 sec (  1.551%)
 hessian update                 ...        0 min,  0.007 sec (  0.852%)
 rational function              ...        0 min,  0.003 sec (  0.294%)

================
 final structure:
================
51
 xtb: 6.7.1 (edcfbbe)
C            1.25647900163678        7.34552845458855        1.21273040318986
C            1.05106525468187        7.09088146481822       -0.07120680170470
C            0.78444357181327        5.74253532314757       -0.61312469650131
O            0.59223494454250        5.50729602325541       -1.77963909547098
O            0.77779912990056        4.78898924677797        0.33598759537848
C            0.52451736100947        3.46940802715042       -0.12032047099590
C            0.60972146872506        2.54013800630955        1.08871791469122
N            0.32517854921332        1.16286963638019        0.71221058450980
C           -0.99105837694261        0.74348528467508        0.77939002031217
O           -1.88299477552414        1.46711120581316        1.13768585898769
N           -1.19669754476364       -0.57710335696010        0.43206562199324
C           -2.55822580635897       -1.08859266988528        0.49247111408377
C           -3.26248363039801       -0.92476488143640       -0.85282100138983
O           -4.56341140591531       -1.47699427677136       -0.72651822457826
C           -5.33603619672469       -1.40110645420161       -1.82548140980753
O           -4.96495100730283       -0.89127088775601       -2.85288391549280
C           -6.67114243214511       -2.00300288081568       -1.63303215511168
C           -7.06548709137705       -2.58912159468190       -0.51214463080389
C           -0.21366109374929       -1.44699406925732       -0.00851843016785
O           -0.44839641975477       -2.58908500331005       -0.29752697447225
N            1.05549224451604       -0.90331812849254       -0.08491286335071
C            2.12942169245288       -1.77328112587795       -0.54490469266162
C            2.68566126285962       -2.61509630160415        0.61184616807060
O            3.93595970199798       -3.19353786715334        0.28105326111478
C            3.91542019306534       -4.24843601524619       -0.55686872113797
O            2.90354596983389       -4.69289431308266       -1.03638373695206
C            5.26235225148006       -4.79865047054214       -0.81311020005854
C            6.37846624246645       -4.29089616641339       -0.31075079920668
C            1.38511461250380        0.39019820171016        0.27332923605380
O            2.50944759840268        0.81491113188645        0.21455102102802
H            1.23889694422470        6.55944043844315        1.94826282184607
H            1.44653523546863        8.34510600909730        1.56597744445262
H            1.06338463010764        7.86620121732268       -0.82353668462458
H           -0.47254097884076        3.42373992078125       -0.57474646641582
H            1.26763769930477        3.19299551770245       -0.87759243669739
H           -0.12610705443872        2.84434139406938        1.83470095344794
H            1.61623753085163        2.57692884111613        1.50862797832036
H           -3.09575819113038       -0.53088017480512        1.26081885344633
H           -2.51206856727239       -2.14770377097717        0.75148127462980
H           -3.33757775381776        0.13413855241574       -1.12785147890135
H           -2.71555012260185       -1.45392053131309       -1.64232278078583
H           -7.30892235511541       -1.92857786225860       -2.50199034684278
H           -6.41435563989543       -2.65687953765092        0.34264385604779
H           -8.04826470676702       -3.01936400480782       -0.41682833974489
H            1.73243826117322       -2.43232625985598       -1.31928144214952
H            2.92184016266499       -1.13801796688062       -0.94584197121223
H            2.88510410500480       -1.97908109625247        1.47761865980453
H            1.96809465977607       -3.40209515256761        0.86884523104258
H            5.26142939755242       -5.66438028709666       -1.45965515662457
H            7.34134763189597       -4.72343048740157       -0.52461426025371
H            6.36042284171472       -3.42544430209654        0.32964531166519
 
 Bond Distances (Angstroems)
 ---------------------------
C1-C2=1.3250         C1-H31=1.0767        C1-H32=1.0771        C2-C1=1.3250         C2-C3=1.4774         C2-H33=1.0804        
C3-C2=1.4774         C3-O4=1.2054         C3-O5=1.3454         O4-C3=1.2054         O5-C3=1.3454         O5-C6=1.4190         
C6-O5=1.4190         C6-C7=1.5273         C6-H34=1.0967        C6-H35=1.0964        C7-C6=1.5273         C7-N8=1.4559         
C7-H36=1.0911        C7-H37=1.0912        N8-C7=1.4559         N8-C9=1.3831         N8-C29=1.3831        C9-N8=1.3831         
C9-O10=1.2031        C9-N11=1.3809        O10-C9=1.2031        N11-C9=1.3809        N11-C12=1.4557       N11-C19=1.3846       
C12-N11=1.4557       C12-C13=1.5273       C12-H38=1.0910       C12-H39=1.0913       C13-C12=1.5273       C13-O14=1.4189       
C13-H40=1.0966       C13-H41=1.0966       O14-C13=1.4189       O14-C15=1.3455       C15-O14=1.3455       C15-O16=1.2055       
C15-C17=1.4771       O16-C15=1.2055       C17-C15=1.4771       C17-C18=1.3249       C17-H42=1.0805       C18-C17=1.3249       
C18-H43=1.0767       C18-H44=1.0771       C19-N11=1.3846       C19-O20=1.2012       C19-N21=1.3828       O20-C19=1.2012       
N21-C19=1.3828       N21-C22=1.4566       N21-C29=1.3821       C22-N21=1.4566       C22-C23=1.5350       C22-H45=1.0916       
C22-H46=1.0919       C23-C22=1.5350       C23-O24=1.4168       C23-H47=1.0926       C23-H48=1.0956       O24-C23=1.4168       
O24-C25=1.3473       C25-O24=1.3473       C25-O26=1.2047       C25-C27=1.4774       O26-C25=1.2047       C27-C25=1.4774       
C27-C28=1.3251       C27-H49=1.0805       C28-C27=1.3251       C28-H50=1.0770       C28-H51=1.0768       C29-N8=1.3831        
C29-N21=1.3821       C29-O30=1.2033       O30-C29=1.2033       H31-C1=1.0767        H32-C1=1.0771        H33-C2=1.0804        
H34-C6=1.0967        H35-C6=1.0964        H36-C7=1.0911        H37-C7=1.0912        H38-C12=1.0910       H39-C12=1.0913       
H40-C13=1.0966       H41-C13=1.0966       H42-C17=1.0805       H43-C18=1.0767       H44-C18=1.0771       H45-C22=1.0916       
H46-C22=1.0919       H47-C23=1.0926       H48-C23=1.0956       H49-C27=1.0805       H50-C28=1.0770       H51-C28=1.0768       
 C  H  Rav=1.0869 sigma=0.0080  Rmin=1.0767  Rmax=1.0967    21
 C  C  Rav=1.4440 sigma=0.0869  Rmin=1.3249  Rmax=1.5350     9
 N  C  Rav=1.4072 sigma=0.0346  Rmin=1.3809  Rmax=1.4566     9
 O  C  Rav=1.2930 sigma=0.0927  Rmin=1.2012  Rmax=1.4190    12
 
 selected bond angles (degree)
 --------------------
H31-C1-C2=121.27               H32-C1-C2=121.57               H32-C1-H31=117.16              C3-C2-C1=123.97                
H33-C2-C1=122.35               H33-C2-C3=113.68               O4-C3-C2=124.18                O5-C3-C2=112.89                
O5-C3-O4=122.93                C6-O5-C3=115.66                C7-C6-O5=107.54                H34-C6-O5=109.53               
H34-C6-C7=110.70               H35-C6-O5=109.61               H35-C6-C7=110.83               H35-C6-H34=108.63              
N8-C7-C6=111.10                H36-C7-C6=109.51               H36-C7-N8=107.98               H37-C7-C6=109.61               
H37-C7-N8=108.16               H37-C7-H36=110.46              C9-N8-C7=117.41                C29-N8-C7=117.44               
C29-N8-C9=125.12               O10-C9-N8=122.52               N11-C9-N8=114.80               N11-C9-O10=122.66              
 
 selected dihedral angles (degree)
 ---------------------------------
C3-C2-C1-H31=  0.00           C3-C2-C1-H32=180.08           H33-C2-C1-H31=179.91          H33-C2-C1-H32=  0.00          
O4-C3-C2-C1=179.72            O4-C3-C2-H33=359.79           O5-C3-C2-C1=359.68            O5-C3-C2-H33=179.76           
C6-O5-C3-C2=179.89            C6-O5-C3-O4=359.85            C7-C6-O5-C3=177.97            H34-C6-O5-C3=298.33           
H35-C6-O5-C3= 57.42           N8-C7-C6-O5=178.46            N8-C7-C6-H34= 58.85           N8-C7-C6-H35=298.24           
H36-C7-C6-O5= 59.26           H36-C7-C6-H34=299.65          H36-C7-C6-H35=179.05          H37-C7-C6-O5=297.94           
H37-C7-C6-H34=178.33          H37-C7-C6-H35= 57.72          C9-N8-C7-C6=269.71            C9-N8-C7-H36= 29.82           
C9-N8-C7-H37=149.37           C29-N8-C7-C6= 87.62           C29-N8-C7-H36=207.73          C29-N8-C7-H37=327.28          
O10-C9-N8-C7=359.65           O10-C9-N8-C29=181.92          N11-C9-N8-C7=181.02           N11-C9-N8-C29=  3.29          
           -------------------------------------------------
          |                Final Singlepoint                |
           -------------------------------------------------

          ...................................................
          :                      SETUP                      :
          :.................................................:
          :  # basis functions                 141          :
          :  # atomic orbitals                 141          :
          :  # shells                           81          :
          :  # electrons                       162          :
          :  max. iterations                   250          :
          :  Hamiltonian                  GFN2-xTB          :
          :  restarted?                      false          :
          :  GBSA solvation                  false          :
          :  PC potential                    false          :
          :  electronic temp.          300.0000000     K    :
          :  accuracy                    1.0000000          :
          :  -> integral cutoff          0.2500000E+02      :
          :  -> integral neglect         0.1000000E-07      :
          :  -> SCF convergence          0.1000000E-05 Eh   :
          :  -> wf. convergence          0.1000000E-03 e    :
          :  Broyden damping             0.4000000          :
          :  net charge                          0          :
          :  unpaired electrons                  0          :
          ...................................................

 iter      E             dE          RMSdq      gap      omega  full diag
   1    -95.7124479 -0.957124E+02  0.168E-04    3.66       0.0  T
   2    -95.7124479 -0.715943E-10  0.119E-04    3.66     117.4  T
   3    -95.7124479 -0.117353E-09  0.823E-05    3.66     170.2  T

   *** convergence criteria satisfied after 3 iterations ***

         #    Occupation            Energy/Eh            Energy/eV
      -------------------------------------------------------------
         1        2.0000           -0.7619616             -20.7340
       ...           ...                  ...                  ...
        75        2.0000           -0.4487725             -12.2117
        76        2.0000           -0.4461056             -12.1392
        77        2.0000           -0.4455641             -12.1244
        78        2.0000           -0.4443411             -12.0911
        79        2.0000           -0.4238077             -11.5324
        80        2.0000           -0.4230252             -11.5111
        81        2.0000           -0.4215404             -11.4707 (HOMO)
        82                         -0.2871462              -7.8136 (LUMO)
        83                         -0.2852992              -7.7634
        84                         -0.2837809              -7.7221
        85                         -0.2694660              -7.3325
        86                         -0.2687241              -7.3124
       ...                                ...                  ...
       141                          0.6952483              18.9187
      -------------------------------------------------------------
                  HL-Gap            0.1343942 Eh            3.6571 eV
             Fermi-level           -0.3543433 Eh           -9.6422 eV

 SCC (total)                   0 d,  0 h,  0 min,  0.018 sec
 SCC setup                      ...        0 min,  0.000 sec (  0.569%)
 Dispersion                     ...        0 min,  0.000 sec (  1.511%)
 classical contributions        ...        0 min,  0.000 sec (  0.259%)
 integral evaluation            ...        0 min,  0.002 sec (  8.921%)
 iterations                     ...        0 min,  0.009 sec ( 52.686%)
 molecular gradient             ...        0 min,  0.006 sec ( 34.750%)
 printout                       ...        0 min,  0.000 sec (  1.151%)

         :::::::::::::::::::::::::::::::::::::::::::::::::::::
         ::                     SUMMARY                     ::
         :::::::::::::::::::::::::::::::::::::::::::::::::::::
         :: total energy             -94.670224467813 Eh    ::
         :: gradient norm              0.000986639177 Eh/a0 ::
         :: HOMO-LUMO gap              3.657053215260 eV    ::
         ::.................................................::
         :: SCC energy               -95.712749813493 Eh    ::
         :: -> isotropic ES            0.226922092907 Eh    ::
         :: -> anisotropic ES          0.002090166818 Eh    ::
         :: -> anisotropic XC          0.014074829040 Eh    ::
         :: -> dispersion             -0.048657404354 Eh    ::
         :: repulsion energy           1.042525345679 Eh    ::
         :: add. restraining           0.000000000000 Eh    ::
         :: total charge              -0.000000000000 e     ::
         :::::::::::::::::::::::::::::::::::::::::::::::::::::

           -------------------------------------------------
          |                Property Printout                |
           -------------------------------------------------

    * Orbital Energies and Occupations

         #    Occupation            Energy/Eh            Energy/eV
      -------------------------------------------------------------
         1        2.0000           -0.7619616             -20.7340
       ...           ...                  ...                  ...
        69        2.0000           -0.4680162             -12.7354
        70        2.0000           -0.4608080             -12.5392
        71        2.0000           -0.4542523             -12.3608
        72        2.0000           -0.4530896             -12.3292
        73        2.0000           -0.4519278             -12.2976
        74        2.0000           -0.4494254             -12.2295
        75        2.0000           -0.4487725             -12.2117
        76        2.0000           -0.4461056             -12.1392
        77        2.0000           -0.4455641             -12.1244
        78        2.0000           -0.4443411             -12.0911
        79        2.0000           -0.4238077             -11.5324
        80        2.0000           -0.4230252             -11.5111
        81        2.0000           -0.4215404             -11.4707 (HOMO)
        82                         -0.2871462              -7.8136 (LUMO)
        83                         -0.2852992              -7.7634
        84                         -0.2837809              -7.7221
        85                         -0.2694660              -7.3325
        86                         -0.2687241              -7.3124
        87                         -0.1810746              -4.9273
        88                         -0.1745627              -4.7501
        89                         -0.1729976              -4.7075
        90                         -0.1714405              -4.6651
        91                         -0.0957379              -2.6052
        92                         -0.0420822              -1.1451
       ...                                ...                  ...
       141                          0.6952483              18.9187
      -------------------------------------------------------------
                  HL-Gap            0.1343942 Eh            3.6571 eV
             Fermi-level           -0.3543433 Eh           -9.6422 eV

     #   Z          covCN         q      C6AA      α(0)
     1   6 C        2.838    -0.061    29.519     8.904
     2   6 C        2.887    -0.057    29.403     8.890
     3   6 C        2.728     0.356    20.957     7.495
     4   8 O        0.857    -0.403    21.737     6.251
     5   8 O        1.705    -0.260    18.308     5.777
     6   6 C        3.709     0.080    19.386     6.293
     7   6 C        3.755    -0.003    20.687     6.485
     8   7 N        2.747    -0.125    23.707     7.231
     9   6 C        2.713     0.327    21.441     7.580
    10   8 O        0.859    -0.403    21.730     6.250
    11   7 N        2.746    -0.124    23.696     7.230
    12   6 C        3.755    -0.004    20.700     6.487
    13   6 C        3.709     0.080    19.384     6.293
    14   8 O        1.705    -0.260    18.302     5.776
    15   6 C        2.728     0.356    20.956     7.494
    16   8 O        0.857    -0.403    21.741     6.251
    17   6 C        2.887    -0.056    29.400     8.890
    18   6 C        2.838    -0.061    29.517     8.903
    19   6 C        2.714     0.326    21.456     7.582
    20   8 O        0.859    -0.392    21.518     6.219
    21   7 N        2.746    -0.124    23.697     7.230
    22   6 C        3.753    -0.004    20.704     6.489
    23   6 C        3.703     0.075    19.480     6.310
    24   8 O        1.705    -0.259    18.299     5.776
    25   6 C        2.722     0.354    20.998     7.501
    26   8 O        0.857    -0.399    21.654     6.239
    27   6 C        2.887    -0.057    29.426     8.893
    28   6 C        2.838    -0.061    29.511     8.903
    29   6 C        2.713     0.327    21.445     7.580
    30   8 O        0.859    -0.402    21.727     6.249
    31   1 H        0.926     0.073     2.048     2.238
    32   1 H        0.926     0.067     2.117     2.275
    33   1 H        0.926     0.076     2.018     2.222
    34   1 H        0.924     0.065     2.143     2.289
    35   1 H        0.924     0.067     2.116     2.275
    36   1 H        0.924     0.097     1.810     2.104
    37   1 H        0.924     0.095     1.827     2.114
    38   1 H        0.924     0.097     1.814     2.106
    39   1 H        0.924     0.097     1.809     2.103
    40   1 H        0.924     0.065     2.140     2.288
    41   1 H        0.924     0.067     2.119     2.277
    42   1 H        0.926     0.076     2.019     2.222
    43   1 H        0.926     0.074     2.046     2.237
    44   1 H        0.926     0.067     2.118     2.276
    45   1 H        0.924     0.102     1.767     2.079
    46   1 H        0.924     0.094     1.844     2.123
    47   1 H        0.924     0.066     2.129     2.282
    48   1 H        0.924     0.073     2.056     2.242
    49   1 H        0.926     0.076     2.020     2.223
    50   1 H        0.926     0.068     2.112     2.273
    51   1 H        0.926     0.076     2.024     2.225

 Mol. C6AA /au·bohr⁶  :      29465.499185
 Mol. C8AA /au·bohr⁸  :     674076.956150
 Mol. α(0) /au        :        259.924313


Wiberg/Mayer (AO) data.
largest (>0.10) Wiberg bond orders for each atom

 ---------------------------------------------------------------------------
     #   Z sym  total        # sym  WBO       # sym  WBO       # sym  WBO
 ---------------------------------------------------------------------------
     1   6 C    3.982 --     2 C    1.931    32 H    0.974    31 H    0.971
     2   6 C    3.986 --     1 C    1.931     3 C    1.016    33 H    0.962
     3   6 C    3.916 --     4 O    1.737     5 O    1.103     2 C    1.016
     4   8 O    2.041 --     3 C    1.737     5 O    0.169
     5   8 O    2.296 --     3 C    1.103     6 C    0.957     4 O    0.169
     6   6 C    3.935 --     7 C    0.993    34 H    0.966    35 H    0.965
                             5 O    0.957
     7   6 C    3.942 --     6 C    0.993     8 N    0.966    37 H    0.963
                            36 H    0.963
     8   7 N    3.531 --     9 C    1.098    29 C    1.098     7 C    0.966
                            10 O    0.130    30 O    0.130
     9   6 C    3.961 --    10 O    1.677    11 N    1.104     8 N    1.098
    10   8 O    2.034 --     9 C    1.677    11 N    0.131     8 N    0.130
    11   7 N    3.532 --     9 C    1.104    19 C    1.093    12 C    0.966
                            10 O    0.131    20 O    0.130
    12   6 C    3.941 --    13 C    0.993    11 N    0.966    38 H    0.963
                            39 H    0.963
    13   6 C    3.935 --    12 C    0.993    40 H    0.966    41 H    0.965
                            14 O    0.957
    14   8 O    2.296 --    15 C    1.103    13 C    0.957    16 O    0.169
    15   6 C    3.916 --    16 O    1.736    14 O    1.103    17 C    1.016
    16   8 O    2.041 --    15 C    1.736    14 O    0.169
    17   6 C    3.987 --    18 C    1.931    15 C    1.016    42 H    0.962
    18   6 C    3.982 --    17 C    1.931    44 H    0.974    43 H    0.971
    19   6 C    3.961 --    20 O    1.688    21 N    1.098    11 N    1.093
    20   8 O    2.046 --    19 C    1.688    21 N    0.131    11 N    0.130
    21   7 N    3.533 --    29 C    1.103    19 C    1.098    22 C    0.964
                            30 O    0.131    20 O    0.131
    22   6 C    3.938 --    23 C    0.983    21 N    0.964    46 H    0.964
                            45 H    0.962
    23   6 C    3.935 --    22 C    0.983    47 H    0.970    48 H    0.965
                            24 O    0.962
    24   8 O    2.299 --    25 C    1.099    23 C    0.962    26 O    0.167
    25   6 C    3.918 --    26 O    1.741    24 O    1.099    27 C    1.017
    26   8 O    2.046 --    25 C    1.741    24 O    0.167
    27   6 C    3.987 --    28 C    1.930    25 C    1.017    49 H    0.962
    28   6 C    3.981 --    27 C    1.930    50 H    0.974    51 H    0.971
    29   6 C    3.961 --    30 O    1.677    21 N    1.103     8 N    1.098
    30   8 O    2.034 --    29 C    1.677    21 N    0.131     8 N    0.130
    31   1 H    0.995 --     1 C    0.971
    32   1 H    0.995 --     1 C    0.974
    33   1 H    0.994 --     2 C    0.962
    34   1 H    0.996 --     6 C    0.966
    35   1 H    0.995 --     6 C    0.965
    36   1 H    0.990 --     7 C    0.963
    37   1 H    0.990 --     7 C    0.963
    38   1 H    0.990 --    12 C    0.963
    39   1 H    0.990 --    12 C    0.963
    40   1 H    0.996 --    13 C    0.966
    41   1 H    0.995 --    13 C    0.965
    42   1 H    0.994 --    17 C    0.962
    43   1 H    0.995 --    18 C    0.971
    44   1 H    0.995 --    18 C    0.974
    45   1 H    0.989 --    22 C    0.962
    46   1 H    0.991 --    22 C    0.964
    47   1 H    0.996 --    23 C    0.970
    48   1 H    0.995 --    23 C    0.965
    49   1 H    0.994 --    27 C    0.962
    50   1 H    0.995 --    28 C    0.974
    51   1 H    0.994 --    28 C    0.971
 ---------------------------------------------------------------------------

Topologies differ in total number of bonds
Writing topology from bond orders to xtbtopo.mol

molecular dipole:
                 x           y           z       tot (Debye)
 q only:        0.694      -0.020       2.182
   full:        0.745      -0.003       2.346       6.257
molecular quadrupole (traceless):
                xx          xy          yy          xz          yz          zz
 q only:       23.683       4.439      -3.248      -7.460       9.933     -20.436
  q+dip:       22.693       4.607      -5.676      -7.302       9.044     -17.017
   full:       22.588       3.412      -5.479      -7.667       8.007     -17.109

           -------------------------------------------------
          |                Geometry Summary                 |
           -------------------------------------------------

      molecular mass/u    :      423.3747559
   center of mass at/Å    :       -0.0377453      -0.0154537      -0.2407989
  moments of inertia/u·Å² :        0.4837611E+04   0.5327339E+04   0.9511506E+04
rotational constants/cm⁻¹ :        0.3484702E-02   0.3164363E-02   0.1772341E-02

 * 48 selected distances

     #   Z          #   Z                                           value/Å
     1   6 C        2   6 C                                       1.3249660
     3   6 C        4   8 O                                       1.2054202
     3   6 C        5   8 O                                       1.3454028
     5   8 O        6   6 C                                       1.4190362
     6   6 C        7   6 C                                       1.5272776
     7   6 C        8   7 N                                       1.4558815
     8   7 N        9   6 C                                       1.3830677
     9   6 C       10   8 O                                       1.2031464
     9   6 C       11   7 N                                       1.3808970
    11   7 N       12   6 C                                       1.4556888
    12   6 C       13   6 C                                       1.5272950
    13   6 C       14   8 O                                       1.4189162
    14   8 O       15   6 C                                       1.3455216
    15   6 C       16   8 O                                       1.2054844
    17   6 C       18   6 C                                       1.3249272
    11   7 N       19   6 C                                       1.3846246
    19   6 C       20   8 O                                       1.2012488
    19   6 C       21   7 N                                       1.3828124
    21   7 N       22   6 C                                       1.4566238
    22   6 C       23   6 C                                       1.5349685 (max)
    23   6 C       24   8 O                                       1.4167799
    24   8 O       25   6 C                                       1.3473476
    25   6 C       26   8 O                                       1.2047272
    27   6 C       28   6 C                                       1.3251001
     8   7 N       29   6 C                                       1.3831496
    21   7 N       29   6 C                                       1.3820901
    29   6 C       30   8 O                                       1.2033125
     1   6 C       31   1 H                                       1.0766855
     1   6 C       32   1 H                                       1.0770610
     2   6 C       33   1 H                                       1.0804041
     6   6 C       34   1 H                                       1.0966832
     6   6 C       35   1 H                                       1.0963999
     7   6 C       36   1 H                                       1.0910886
     7   6 C       37   1 H                                       1.0912162
    12   6 C       38   1 H                                       1.0910283
    12   6 C       39   1 H                                       1.0912989
    13   6 C       40   1 H                                       1.0966119
    13   6 C       41   1 H                                       1.0965652
    17   6 C       42   1 H                                       1.0804586
    18   6 C       43   1 H                                       1.0766740 (min)
    18   6 C       44   1 H                                       1.0770542
    22   6 C       45   1 H                                       1.0916024
    22   6 C       46   1 H                                       1.0918962
    23   6 C       47   1 H                                       1.0926367
    23   6 C       48   1 H                                       1.0955901
    27   6 C       49   1 H                                       1.0805136
    28   6 C       50   1 H                                       1.0770164
    28   6 C       51   1 H                                       1.0767729

 * 4 distinct bonds (by element types)

   Z      Z             #   av. dist./Å        max./Å        min./Å
   1 H    6 C          21     1.0869170     1.0966832     1.0766740
   6 C    6 C           6     1.4274224     1.5349685     1.3249272
   6 C    7 N           9     1.4072039     1.4566238     1.3808970
   6 C    8 O          12     1.2930286     1.4190362     1.2012488


optimized geometry written to: xtbopt.xyz


           -------------------------------------------------
          | TOTAL ENERGY              -94.670224467813 Eh   |
          | GRADIENT NORM               0.000986639177 Eh/α |
          | HOMO-LUMO GAP               3.657053215260 eV   |
           -------------------------------------------------

------------------------------------------------------------------------
 * finished run on 2025/12/01 at 14:23:22.564     
------------------------------------------------------------------------
 total:
 * wall-time:     0 d,  0 h,  0 min,  0.976 sec
 *  cpu-time:     0 d,  0 h,  0 min, 22.304 sec
 * ratio c/w:    22.861 speedup
 SCF:
 * wall-time:     0 d,  0 h,  0 min,  0.070 sec
 *  cpu-time:     0 d,  0 h,  0 min,  1.583 sec
 * ratio c/w:    22.519 speedup
 ANC optimizer:
 * wall-time:     0 d,  0 h,  0 min,  0.895 sec
 *  cpu-time:     0 d,  0 h,  0 min, 20.515 sec
 * ratio c/w:    22.928 speedup

normal termination of xtb
