      -----------------------------------------------------------      
     |                   =====================                   |     
     |                           x T B                           |     
     |                   =====================                   |     
     |                         S. Grimme                         |     
     |          Mulliken Center for Theoretical Chemistry        |     
     |                    University of Bonn                     |     
      -----------------------------------------------------------      

   * xtb version 6.7.1 (edcfbbe) compiled by 'albert@albert-system' on 2024-07-22

   xtb is free software: you can redistribute it and/or modify it under
   the terms of the GNU Lesser General Public License as published by
   the Free Software Foundation, either version 3 of the License, or
   (at your option) any later version.
   
   xtb is distributed in the hope that it will be useful,
   but WITHOUT ANY WARRANTY; without even the implied warranty of
   MERCHANTABILITY or FITNESS FOR A PARTICULAR PURPOSE.  See the
   GNU Lesser General Public License for more details.
   
   Cite this work as:
   * C. Bannwarth, E. Caldeweyher, S. Ehlert, A. Hansen, P. Pracht,
     J. Seibert, S. Spicher, S. Grimme, WIREs Comput. Mol. Sci., 2020, 11,
     e01493. DOI: 10.1002/wcms.1493
   
   for GFN2-xTB:
   * C. Bannwarth, S. Ehlert and S. Grimme., J. Chem. Theory Comput., 2019,
     15, 1652-1671. DOI: 10.1021/acs.jctc.8b01176
   for GFN1-xTB:
   * S. Grimme, C. Bannwarth, P. Shushkov, J. Chem. Theory Comput., 2017,
     13, 1989-2009. DOI: 10.1021/acs.jctc.7b00118
   for GFN0-xTB:
   * P. Pracht, E. Caldeweyher, S. Ehlert, S. Grimme, ChemRxiv, 2019, preprint.
     DOI: 10.26434/chemrxiv.8326202.v1
   for GFN-FF:
   * S. Spicher and S. Grimme, Angew. Chem. Int. Ed., 2020, 59, 15665-15673.
     DOI: 10.1002/anie.202004239
   
   for ALPB and GBSA implicit solvation:
   * S. Ehlert, M. Stahn, S. Spicher, S. Grimme, J. Chem. Theory Comput.,
     2021, 17, 4250-4261. DOI: 10.1021/acs.jctc.1c00471
   
   for ddCOSMO and CPCM-X implicit solvation:
   * M. Stahn, S. Ehlert, S. Grimme, J. Phys. Chem. A,
     2023, XX, XXXX-XXXX. DOI: 10.1021/acs.jpca.3c04382
   
   for DFT-D4:
   * E. Caldeweyher, C. Bannwarth and S. Grimme, J. Chem. Phys., 2017,
     147, 034112. DOI: 10.1063/1.4993215
   * E. Caldeweyher, S. Ehlert, A. Hansen, H. Neugebauer, S. Spicher,
     C. Bannwarth and S. Grimme, J. Chem. Phys., 2019, 150, 154122.
     DOI: 10.1063/1.5090222
   * E. Caldeweyher, J.-M. Mewes, S. Ehlert and S. Grimme, Phys. Chem. Chem. Phys.
     2020, 22, 8499-8512. DOI: 10.1039/D0CP00502A
   
   for sTDA-xTB:
   * S. Grimme and C. Bannwarth, J. Chem. Phys., 2016, 145, 054103.
     DOI: 10.1063/1.4959605
   
   in the mass-spec context:
   * V. Asgeirsson, C. Bauer and S. Grimme, Chem. Sci., 2017, 8, 4879.
     DOI: 10.1039/c7sc00601b
   * J. Koopman and S. Grimme, ACS Omega 2019, 4, 12, 15120-15133.
     DOI: 10.1021/acsomega.9b02011
   
   for metadynamics refer to:
   * S. Grimme, J. Chem. Theory Comput., 2019, 155, 2847-2862
     DOI: 10.1021/acs.jctc.9b00143
   
   for SPH calculations refer to:
   * S. Spicher and S. Grimme, J. Chem. Theory Comput., 2021, 17, 1701-1714
     DOI: 10.1021/acs.jctc.0c01306
   
   for ONIOM refer to:
   * C. Plett, A. Katbashev, S. Ehlert, S. Grimme, M. Bursch,
     Phys. Chem. Chem. Phys., 2023, 25, 17860-17868. DOI: 10.1039/D3CP02178E
   
   for DIPRO refer to:
   * J. Kohn, N. Gildemeister, S. Grimme, D. Fazzi, A. Hansen,
     J. Chem. Phys., 2023, just accepted.
   
   for PTB refer to:
   * S. Grimme, M. Mueller, A. Hansen, J. Chem. Phys., 2023, 158, 124111.
     DOI: 10.1063/5.0137838
   
   with help from (in alphabetical order)
   P. Atkinson, C. Bannwarth, F. Bohle, G. Brandenburg, E. Caldeweyher
   M. Checinski, S. Dohm, S. Ehlert, S. Ehrlich, I. Gerasimov, C. Hölzer
   A. Katbashev, J. Kohn, J. Koopman, C. Lavigne, S. Lehtola, F. März, M. Müller,
   F. Musil, H. Neugebauer, J. Pisarek, C. Plett, P. Pracht, F. Pultar,
   J. Seibert, P. Shushkov, S. Spicher, M. Stahn, M. Steiner, T. Strunk,
   J. Stückrath, T. Rose, and J. Unsleber
   
 * started run on 2025/12/01 at 14:23:20.094     
   ID    Z sym.   atoms
    1    6 C      1-3, 6, 7, 9, 12, 13, 15, 17-19, 22, 23, 25, 27-29
    2    8 O      4, 5, 10, 14, 16, 20, 24, 26, 30
    3    7 N      8, 11, 21
    4    1 H      31-51

           -------------------------------------------------
          |                Calculation Setup                |
           -------------------------------------------------

          program call               : xtb pipeline_data/3_conformer_xyz/acrylates/rdkit/YIJYFLXQHDOQGW-UHFFFAOYSA-N_conf95.xyz --opt --gfn 2-xTB --iterations 250
          coordinate file            : pipeline_data/3_conformer_xyz/acrylates/rdkit/YIJYFLXQHDOQGW-UHFFFAOYSA-N_conf95.xyz
          omp threads                :                    24

########################################################################
[WARNING] Please study the warnings concerning your input carefully
-1- readin_getIntValue: could not parse '2-xTB'
########################################################################

           -------------------------------------------------
          |                 G F N 2 - x T B                 |
           -------------------------------------------------

        Reference                      10.1021/acs.jctc.8b01176
      * Hamiltonian:
        H0-scaling (s, p, d)           1.850000    2.230000    2.230000
        zeta-weighting                 0.500000
      * Dispersion:
        s8                             2.700000
        a1                             0.520000
        a2                             5.000000
        s9                             5.000000
      * Repulsion:
        kExp                           1.500000    1.000000
        rExp                           1.000000
      * Coulomb:
        alpha                          2.000000
        third order                    shell-resolved
        anisotropic                    true
        a3                             3.000000
        a5                             4.000000
        cn-shift                       1.200000
        cn-exp                         4.000000
        max-rad                        5.000000


          ...................................................
          :                      SETUP                      :
          :.................................................:
          :  # basis functions                 141          :
          :  # atomic orbitals                 141          :
          :  # shells                           81          :
          :  # electrons                       162          :
          :  max. iterations                   250          :
          :  Hamiltonian                  GFN2-xTB          :
          :  restarted?                      false          :
          :  GBSA solvation                  false          :
          :  PC potential                    false          :
          :  electronic temp.          300.0000000     K    :
          :  accuracy                    1.0000000          :
          :  -> integral cutoff          0.2500000E+02      :
          :  -> integral neglect         0.1000000E-07      :
          :  -> SCF convergence          0.1000000E-05 Eh   :
          :  -> wf. convergence          0.1000000E-03 e    :
          :  Broyden damping             0.4000000          :
          :  net charge                          0          :
          :  unpaired electrons                  0          :
          ...................................................

 iter      E             dE          RMSdq      gap      omega  full diag
   1    -95.2206562 -0.952207E+02  0.545E+00    3.33       0.0  T
   2    -95.5292131 -0.308557E+00  0.292E+00    2.93       1.0  T
   3    -95.5509497 -0.217366E-01  0.182E+00    3.48       1.0  T
   4    -95.5674015 -0.164518E-01  0.480E-01    3.13       1.0  T
   5    -95.5758976 -0.849604E-02  0.184E-01    3.27       1.0  T
   6    -95.5769878 -0.109019E-02  0.694E-02    3.26       1.0  T
   7    -95.5770008 -0.130473E-04  0.256E-02    3.27       1.0  T
   8    -95.5770021 -0.129075E-05  0.149E-02    3.27       1.0  T
   9    -95.5770091 -0.695757E-05  0.461E-03    3.26       3.0  T
  10    -95.5770093 -0.198877E-06  0.188E-03    3.26       7.5  T
  11    -95.5770093 -0.573548E-07  0.818E-04    3.26      17.1  T
  12    -95.5770093 -0.593664E-08  0.344E-04    3.26      40.7  T

   *** convergence criteria satisfied after 12 iterations ***

         #    Occupation            Energy/Eh            Energy/eV
      -------------------------------------------------------------
         1        2.0000           -0.7709516             -20.9787
       ...           ...                  ...                  ...
        75        2.0000           -0.4491039             -12.2207
        76        2.0000           -0.4477605             -12.1842
        77        2.0000           -0.4443657             -12.0918
        78        2.0000           -0.4374607             -11.9039
        79        2.0000           -0.4220331             -11.4841
        80        2.0000           -0.4217787             -11.4772
        81        2.0000           -0.4187025             -11.3935 (HOMO)
        82                         -0.2987183              -8.1285 (LUMO)
        83                         -0.2965921              -8.0707
        84                         -0.2964839              -8.0677
        85                         -0.2815414              -7.6611
        86                         -0.2745647              -7.4713
       ...                                ...                  ...
       141                          0.6132251              16.6867
      -------------------------------------------------------------
                  HL-Gap            0.1199843 Eh            3.2649 eV
             Fermi-level           -0.3587104 Eh           -9.7610 eV

 SCC (total)                   0 d,  0 h,  0 min,  0.077 sec
 SCC setup                      ...        0 min,  0.000 sec (  0.301%)
 Dispersion                     ...        0 min,  0.001 sec (  0.834%)
 classical contributions        ...        0 min,  0.000 sec (  0.097%)
 integral evaluation            ...        0 min,  0.002 sec (  3.129%)
 iterations                     ...        0 min,  0.067 sec ( 87.138%)
 molecular gradient             ...        0 min,  0.006 sec (  8.063%)
 printout                       ...        0 min,  0.000 sec (  0.398%)

         :::::::::::::::::::::::::::::::::::::::::::::::::::::
         ::                     SUMMARY                     ::
         :::::::::::::::::::::::::::::::::::::::::::::::::::::
         :: total energy             -94.604139339894 Eh    ::
         :: gradient norm              0.299178877222 Eh/a0 ::
         :: HOMO-LUMO gap              3.264938458609 eV    ::
         ::.................................................::
         :: SCC energy               -95.577384949703 Eh    ::
         :: -> isotropic ES            0.253543704363 Eh    ::
         :: -> anisotropic ES         -0.003210558488 Eh    ::
         :: -> anisotropic XC          0.014497356354 Eh    ::
         :: -> dispersion             -0.048349526957 Eh    ::
         :: repulsion energy           0.973245609809 Eh    ::
         :: add. restraining           0.000000000000 Eh    ::
         :: total charge               0.000000000000 e     ::
         :::::::::::::::::::::::::::::::::::::::::::::::::::::

      ----------------------------------------------------------- 
     |                   =====================                   |
     |                        A N C O P T                        |
     |                   =====================                   |
     |               Approximate Normal Coordinate               |
     |                Rational Function Optimizer                |
      ----------------------------------------------------------- 
      ----------------------------------------------------------- 
     |                   =====================                   |
     |                        A N C O P T                        |
     |                   =====================                   |
     |               Approximate Normal Coordinate               |
     |                Rational Function Optimizer                |
      ----------------------------------------------------------- 

          ...................................................
          :                      SETUP                      :
          :.................................................:
          :   optimization level            normal          :
          :   max. optcycles                   200          :
          :   ANC micro-cycles                  20          :
          :   degrees of freedom               147          :
          :.................................................:
          :   RF solver                   davidson          :
          :   write xtbopt.log                true          :
          :   linear?                        false          :
          :   energy convergence         0.5000000E-05 Eh   :
          :   grad. convergence          0.1000000E-02 Eh/α :
          :   maxmium RF displ.          1.0000000          :
          :   Hlow (freq-cutoff)         0.1000000E-01      :
          :   Hmax (freq-cutoff)         5.0000000          :
          :   S6 in model hess.         20.0000000          :
          ...................................................

generating ANC from exact Hessian ...
Using Lindh-Hessian (1995)
 Shifting diagonal of input Hessian by   9.827185124429049E-003
 Lowest  eigenvalues of input Hessian
    0.000000    0.000000    0.000000    0.000000    0.000000    0.000000
    0.010000    0.010015    0.010062    0.010373    0.010452    0.010542
    0.010662    0.011108    0.011376    0.012569    0.012642    0.013349
 Highest eigenvalues
    2.138991    2.153363    2.168802    2.251231    2.548379    2.578684
 

........................................................................
.............................. CYCLE    1 ..............................
........................................................................

 iter      E             dE          RMSdq      gap      omega  full diag
   1    -95.5770093 -0.955770E+02  0.108E-04    3.26       0.0  T
   2    -95.5770093 -0.177266E-09  0.590E-05    3.26     237.5  T
   3    -95.5770093 -0.732996E-10  0.372E-05    3.26     376.7  T
     SCC iter.                  ...        0 min,  0.010 sec
     gradient                   ...        0 min,  0.007 sec
 * total energy  :   -94.6041393 Eh     change       -0.1398746E-08 Eh
   gradient norm :     0.2991796 Eh/α   predicted     0.0000000E+00 (-100.00%)
   displ. norm   :     0.3545039 α      lambda       -0.6261953E-01
   maximum displ.:     0.1231004 α      in ANC's #33, #48, #145, ...

........................................................................
.............................. CYCLE    2 ..............................
........................................................................

 iter      E             dE          RMSdq      gap      omega  full diag
   1    -95.6549501 -0.956550E+02  0.357E-01    3.44       0.0  T
   2    -95.6576037 -0.265359E-02  0.211E-01    3.51       1.0  T
   3    -95.6577840 -0.180270E-03  0.116E-01    3.52       1.0  T
   4    -95.6577315  0.524633E-04  0.555E-02    3.53       1.0  T
   5    -95.6578253 -0.937354E-04  0.144E-02    3.53       1.0  T
   6    -95.6578316 -0.637154E-05  0.536E-03    3.53       2.6  T
   7    -95.6578319 -0.286919E-06  0.125E-03    3.53      11.2  T
   8    -95.6578319 -0.729932E-08  0.651E-04    3.53      21.5  T
   9    -95.6578319 -0.192750E-08  0.280E-04    3.53      49.9  T
     SCC iter.                  ...        0 min,  0.028 sec
     gradient                   ...        0 min,  0.006 sec
 * total energy  :   -94.6503587 Eh     change       -0.4621936E-01 Eh
   gradient norm :     0.1364901 Eh/α   predicted    -0.3526451E-01 ( -23.70%)
   displ. norm   :     0.3738999 α      lambda       -0.2720779E-01
   maximum displ.:     0.1521326 α      in ANC's #33, #54, #48, ...

........................................................................
.............................. CYCLE    3 ..............................
........................................................................

 iter      E             dE          RMSdq      gap      omega  full diag
   1    -95.7055348 -0.957055E+02  0.351E-01    3.63       0.0  T
   2    -95.7076202 -0.208539E-02  0.197E-01    3.68       1.0  T
   3    -95.7077342 -0.113955E-03  0.105E-01    3.68       1.0  T
   4    -95.7077213  0.128480E-04  0.377E-02    3.68       1.0  T
   5    -95.7077652 -0.438796E-04  0.115E-02    3.68       1.2  T
   6    -95.7077687 -0.348375E-05  0.488E-03    3.68       2.9  T
   7    -95.7077690 -0.301041E-06  0.995E-04    3.68      14.1  T
   8    -95.7077690 -0.544613E-08  0.469E-04    3.68      29.8  T
     SCC iter.                  ...        0 min,  0.025 sec
     gradient                   ...        0 min,  0.006 sec
 * total energy  :   -94.6657372 Eh     change       -0.1537846E-01 Eh
   gradient norm :     0.0373683 Eh/α   predicted    -0.1550819E-01 (   0.84%)
   displ. norm   :     0.2755550 α      lambda       -0.3762805E-02
   maximum displ.:     0.1063347 α      in ANC's #33, #13, #14, ...

........................................................................
.............................. CYCLE    4 ..............................
........................................................................

 iter      E             dE          RMSdq      gap      omega  full diag
   1    -95.7040194 -0.957040E+02  0.132E-01    3.68       0.0  T
   2    -95.7040921 -0.726919E-04  0.785E-02    3.67       1.0  T
   3    -95.7040676  0.244738E-04  0.372E-02    3.67       1.0  T
   4    -95.7040941 -0.265024E-04  0.150E-02    3.67       1.0  T
   5    -95.7041026 -0.852411E-05  0.275E-03    3.67       5.1  T
   6    -95.7041027 -0.933706E-07  0.136E-03    3.67      10.3  T
   7    -95.7041027 -0.100168E-07  0.393E-04    3.67      35.6  T
   8    -95.7041027 -0.118187E-08  0.142E-04    3.67      98.6  T
     SCC iter.                  ...        0 min,  0.025 sec
     gradient                   ...        0 min,  0.007 sec
 * total energy  :   -94.6682474 Eh     change       -0.2510258E-02 Eh
   gradient norm :     0.0154066 Eh/α   predicted    -0.2024265E-02 ( -19.36%)
   displ. norm   :     0.2800869 α      lambda       -0.1394703E-02
   maximum displ.:     0.1005398 α      in ANC's #13, #14, #12, ...

........................................................................
.............................. CYCLE    5 ..............................
........................................................................

 iter      E             dE          RMSdq      gap      omega  full diag
   1    -95.7063870 -0.957064E+02  0.847E-02    3.67       0.0  T
   2    -95.7064196 -0.326252E-04  0.500E-02    3.67       1.0  T
   3    -95.7064155  0.415288E-05  0.202E-02    3.67       1.0  T
   4    -95.7064190 -0.353427E-05  0.938E-03    3.67       1.5  T
   5    -95.7064225 -0.346800E-05  0.185E-03    3.67       7.6  T
   6    -95.7064225 -0.578227E-07  0.845E-04    3.67      16.6  T
   7    -95.7064225 -0.377783E-08  0.229E-04    3.67      61.2  T
     SCC iter.                  ...        0 min,  0.024 sec
     gradient                   ...        0 min,  0.007 sec
 * total energy  :   -94.6691629 Eh     change       -0.9155277E-03 Eh
   gradient norm :     0.0076007 Eh/α   predicted    -0.7521446E-03 ( -17.85%)
   displ. norm   :     0.2492920 α      lambda       -0.6286677E-03
   maximum displ.:     0.1016536 α      in ANC's #13, #14, #19, ...

........................................................................
.............................. CYCLE    6 ..............................
........................................................................

 iter      E             dE          RMSdq      gap      omega  full diag
   1    -95.7101427 -0.957101E+02  0.586E-02    3.68       0.0  T
   2    -95.7101532 -0.104988E-04  0.350E-02    3.67       1.0  T
   3    -95.7101519  0.125212E-05  0.115E-02    3.67       1.2  T
   4    -95.7101539 -0.201293E-05  0.377E-03    3.67       3.7  T
   5    -95.7101544 -0.448369E-06  0.143E-03    3.67       9.8  T
   6    -95.7101544 -0.424052E-07  0.680E-04    3.67      20.6  T
   7    -95.7101544 -0.373846E-08  0.160E-04    3.67      87.5  T
     SCC iter.                  ...        0 min,  0.024 sec
     gradient                   ...        0 min,  0.006 sec
 * total energy  :   -94.6695500 Eh     change       -0.3870078E-03 Eh
   gradient norm :     0.0079162 Eh/α   predicted    -0.3338697E-03 ( -13.73%)
   displ. norm   :     0.2241427 α      lambda       -0.3727765E-03
   maximum displ.:     0.0854226 α      in ANC's #13, #14, #19, ...

........................................................................
.............................. CYCLE    7 ..............................
........................................................................

 iter      E             dE          RMSdq      gap      omega  full diag
   1    -95.7125269 -0.957125E+02  0.564E-02    3.67       0.0  T
   2    -95.7125304 -0.352661E-05  0.336E-02    3.67       1.0  T
   3    -95.7125296  0.808680E-06  0.674E-03    3.67       2.1  T
   4    -95.7125309 -0.133727E-05  0.192E-03    3.67       7.3  T
   5    -95.7125310 -0.682792E-07  0.109E-03    3.67      12.9  T
   6    -95.7125310 -0.144543E-07  0.575E-04    3.67      24.4  T
   7    -95.7125310 -0.535660E-08  0.125E-04    3.67     111.9  T
     SCC iter.                  ...        0 min,  0.024 sec
     gradient                   ...        0 min,  0.007 sec
 * total energy  :   -94.6697878 Eh     change       -0.2378317E-03 Eh
   gradient norm :     0.0077732 Eh/α   predicted    -0.1957572E-03 ( -17.69%)
   displ. norm   :     0.1930447 α      lambda       -0.2390160E-03
   maximum displ.:     0.0709366 α      in ANC's #13, #11, #14, ...

........................................................................
.............................. CYCLE    8 ..............................
........................................................................

 iter      E             dE          RMSdq      gap      omega  full diag
   1    -95.7135566 -0.957136E+02  0.445E-02    3.67       0.0  T
   2    -95.7135593 -0.265824E-05  0.263E-02    3.67       1.0  T
   3    -95.7135591  0.168913E-06  0.479E-03    3.67       2.9  T
   4    -95.7135594 -0.310530E-06  0.231E-03    3.67       6.1  T
   5    -95.7135596 -0.176406E-06  0.884E-04    3.67      15.8  T
   6    -95.7135596 -0.697688E-08  0.409E-04    3.67      34.2  T
     SCC iter.                  ...        0 min,  0.021 sec
     gradient                   ...        0 min,  0.009 sec
 * total energy  :   -94.6699611 Eh     change       -0.1732979E-03 Eh
   gradient norm :     0.0050240 Eh/α   predicted    -0.1239618E-03 ( -28.47%)
   displ. norm   :     0.2074229 α      lambda       -0.1837354E-03
   maximum displ.:     0.0810186 α      in ANC's #11, #13, #2, ...

........................................................................
.............................. CYCLE    9 ..............................
........................................................................

 iter      E             dE          RMSdq      gap      omega  full diag
   1    -95.7127175 -0.957127E+02  0.464E-02    3.67       0.0  T
   2    -95.7127203 -0.285242E-05  0.274E-02    3.67       1.0  T
   3    -95.7127200  0.291081E-06  0.549E-03    3.67       2.6  T
   4    -95.7127206 -0.611507E-06  0.193E-03    3.67       7.3  T
   5    -95.7127207 -0.878031E-07  0.980E-04    3.67      14.3  T
   6    -95.7127207 -0.130331E-07  0.507E-04    3.67      27.6  T
     SCC iter.                  ...        0 min,  0.021 sec
     gradient                   ...        0 min,  0.008 sec
 * total energy  :   -94.6700816 Eh     change       -0.1204904E-03 Eh
   gradient norm :     0.0034887 Eh/α   predicted    -0.9582622E-04 ( -20.47%)
   displ. norm   :     0.1581558 α      lambda       -0.9091527E-04
   maximum displ.:     0.0688534 α      in ANC's #11, #2, #8, ...

........................................................................
.............................. CYCLE   10 ..............................
........................................................................

 iter      E             dE          RMSdq      gap      omega  full diag
   1    -95.7118952 -0.957119E+02  0.325E-02    3.68       0.0  T
   2    -95.7118961 -0.913739E-06  0.192E-02    3.68       1.0  T
   3    -95.7118960  0.172968E-06  0.342E-03    3.68       4.1  T
   4    -95.7118963 -0.332020E-06  0.126E-03    3.68      11.1  T
   5    -95.7118963 -0.323249E-07  0.682E-04    3.68      20.5  T
   6    -95.7118963 -0.631779E-08  0.331E-04    3.68      42.3  T
     SCC iter.                  ...        0 min,  0.020 sec
     gradient                   ...        0 min,  0.006 sec
 * total energy  :   -94.6701417 Eh     change       -0.6017438E-04 Eh
   gradient norm :     0.0033067 Eh/α   predicted    -0.4660074E-04 ( -22.56%)
   displ. norm   :     0.1778368 α      lambda       -0.8179136E-04
   maximum displ.:     0.0813436 α      in ANC's #11, #2, #6, ...

........................................................................
.............................. CYCLE   11 ..............................
........................................................................

 iter      E             dE          RMSdq      gap      omega  full diag
   1    -95.7112636 -0.957113E+02  0.340E-02    3.68       0.0  T
   2    -95.7112642 -0.626879E-06  0.202E-02    3.68       1.0  T
   3    -95.7112640  0.215868E-06  0.324E-03    3.68       4.3  T
   4    -95.7112643 -0.314361E-06  0.149E-03    3.68       9.4  T
   5    -95.7112644 -0.628831E-07  0.599E-04    3.68      23.4  T
   6    -95.7112644 -0.187077E-08  0.262E-04    3.68      53.4  T
     SCC iter.                  ...        0 min,  0.019 sec
     gradient                   ...        0 min,  0.007 sec
 * total energy  :   -94.6702000 Eh     change       -0.5828024E-04 Eh
   gradient norm :     0.0032048 Eh/α   predicted    -0.4220044E-04 ( -27.59%)
   displ. norm   :     0.1998719 α      lambda       -0.8347993E-04
   maximum displ.:     0.0880957 α      in ANC's #11, #2, #7, ...

........................................................................
.............................. CYCLE   12 ..............................
........................................................................

 iter      E             dE          RMSdq      gap      omega  full diag
   1    -95.7114625 -0.957115E+02  0.352E-02    3.69       0.0  T
   2    -95.7114636 -0.109201E-05  0.207E-02    3.69       1.0  T
   3    -95.7114635  0.758825E-07  0.302E-03    3.69       4.6  T
   4    -95.7114637 -0.167813E-06  0.136E-03    3.69      10.3  T
   5    -95.7114638 -0.537880E-07  0.619E-04    3.69      22.6  T
   6    -95.7114638 -0.454440E-08  0.293E-04    3.69      47.9  T
     SCC iter.                  ...        0 min,  0.031 sec
     gradient                   ...        0 min,  0.008 sec
 * total energy  :   -94.6702615 Eh     change       -0.6148598E-04 Eh
   gradient norm :     0.0031887 Eh/α   predicted    -0.4340812E-04 ( -29.40%)
   displ. norm   :     0.2284758 α      lambda       -0.7818337E-04
   maximum displ.:     0.1018546 α      in ANC's #2, #11, #6, ...

........................................................................
.............................. CYCLE   13 ..............................
........................................................................

 iter      E             dE          RMSdq      gap      omega  full diag
   1    -95.7115388 -0.957115E+02  0.405E-02    3.69       0.0  T
   2    -95.7115401 -0.129455E-05  0.239E-02    3.69       1.0  T
   3    -95.7115397  0.455113E-06  0.446E-03    3.69       3.1  T
   4    -95.7115403 -0.576829E-06  0.187E-03    3.69       7.5  T
   5    -95.7115404 -0.109100E-06  0.654E-04    3.69      21.4  T
   6    -95.7115404 -0.351385E-08  0.351E-04    3.69      39.9  T
     SCC iter.                  ...        0 min,  0.036 sec
     gradient                   ...        0 min,  0.007 sec
 * total energy  :   -94.6703143 Eh     change       -0.5275584E-04 Eh
   gradient norm :     0.0031195 Eh/α   predicted    -0.4113335E-04 ( -22.03%)
   displ. norm   :     0.1982011 α      lambda       -0.6171760E-04
   maximum displ.:     0.0929701 α      in ANC's #2, #7, #6, ...

........................................................................
.............................. CYCLE   14 ..............................
........................................................................

 iter      E             dE          RMSdq      gap      omega  full diag
   1    -95.7127962 -0.957128E+02  0.344E-02    3.69       0.0  T
   2    -95.7127970 -0.808620E-06  0.203E-02    3.69       1.0  T
   3    -95.7127966  0.475478E-06  0.404E-03    3.69       3.5  T
   4    -95.7127971 -0.579787E-06  0.139E-03    3.69      10.1  T
   5    -95.7127972 -0.605805E-07  0.604E-04    3.69      23.2  T
   6    -95.7127972 -0.519692E-08  0.273E-04    3.69      51.2  T
     SCC iter.                  ...        0 min,  0.019 sec
     gradient                   ...        0 min,  0.006 sec
 * total energy  :   -94.6703529 Eh     change       -0.3866305E-04 Eh
   gradient norm :     0.0035544 Eh/α   predicted    -0.3207429E-04 ( -17.04%)
   displ. norm   :     0.2064266 α      lambda       -0.5198664E-04
   maximum displ.:     0.1000928 α      in ANC's #2, #6, #7, ...

........................................................................
.............................. CYCLE   15 ..............................
........................................................................

 iter      E             dE          RMSdq      gap      omega  full diag
   1    -95.7126331 -0.957126E+02  0.375E-02    3.69       0.0  T
   2    -95.7126337 -0.603213E-06  0.222E-02    3.69       1.0  T
   3    -95.7126332  0.523894E-06  0.398E-03    3.69       3.5  T
   4    -95.7126338 -0.614362E-06  0.154E-03    3.69       9.1  T
   5    -95.7126339 -0.685093E-07  0.519E-04    3.69      27.0  T
   6    -95.7126339 -0.701235E-09  0.239E-04    3.69      58.5  T
     SCC iter.                  ...        0 min,  0.019 sec
     gradient                   ...        0 min,  0.007 sec
 * total energy  :   -94.6703878 Eh     change       -0.3489053E-04 Eh
   gradient norm :     0.0028137 Eh/α   predicted    -0.2710598E-04 ( -22.31%)
   displ. norm   :     0.1922391 α      lambda       -0.5277648E-04
   maximum displ.:     0.0980613 α      in ANC's #2, #7, #6, ...

........................................................................
.............................. CYCLE   16 ..............................
........................................................................

 iter      E             dE          RMSdq      gap      omega  full diag
   1    -95.7131314 -0.957131E+02  0.356E-02    3.69       0.0  T
   2    -95.7131318 -0.360891E-06  0.211E-02    3.69       1.0  T
   3    -95.7131318 -0.139149E-07  0.180E-03    3.69       7.8  T
   4    -95.7131319 -0.795006E-07  0.838E-04    3.69      16.7  T
   5    -95.7131319 -0.853879E-08  0.541E-04    3.69      25.9  T
     SCC iter.                  ...        0 min,  0.020 sec
     gradient                   ...        0 min,  0.007 sec
 * total energy  :   -94.6704241 Eh     change       -0.3629519E-04 Eh
   gradient norm :     0.0024687 Eh/α   predicted    -0.2736647E-04 ( -24.60%)
   displ. norm   :     0.1731474 α      lambda       -0.3703242E-04
   maximum displ.:     0.0929741 α      in ANC's #2, #7, #6, ...

........................................................................
.............................. CYCLE   17 ..............................
........................................................................

 iter      E             dE          RMSdq      gap      omega  full diag
   1    -95.7128202 -0.957128E+02  0.332E-02    3.69       0.0  T
   2    -95.7128205 -0.228039E-06  0.196E-02    3.69       1.0  T
   3    -95.7128204  0.121425E-06  0.236E-03    3.69       5.9  T
   4    -95.7128206 -0.199305E-06  0.946E-04    3.69      14.8  T
   5    -95.7128206 -0.183333E-07  0.449E-04    3.69      31.2  T
     SCC iter.                  ...        0 min,  0.022 sec
     gradient                   ...        0 min,  0.006 sec
 * total energy  :   -94.6704511 Eh     change       -0.2700262E-04 Eh
   gradient norm :     0.0020896 Eh/α   predicted    -0.1907229E-04 ( -29.37%)
   displ. norm   :     0.1401701 α      lambda       -0.2958364E-04
   maximum displ.:     0.0799663 α      in ANC's #2, #7, #6, ...

........................................................................
.............................. CYCLE   18 ..............................
........................................................................

 iter      E             dE          RMSdq      gap      omega  full diag
   1    -95.7127963 -0.957128E+02  0.289E-02    3.69       0.0  T
   2    -95.7127965 -0.154168E-06  0.170E-02    3.69       1.0  T
   3    -95.7127964  0.750676E-07  0.203E-03    3.69       6.9  T
   4    -95.7127965 -0.143754E-06  0.758E-04    3.69      18.5  T
   5    -95.7127966 -0.862742E-08  0.369E-04    3.69      38.0  T
     SCC iter.                  ...        0 min,  0.020 sec
     gradient                   ...        0 min,  0.006 sec
 * total energy  :   -94.6704736 Eh     change       -0.2251839E-04 Eh
   gradient norm :     0.0020016 Eh/α   predicted    -0.1508418E-04 ( -33.01%)
   displ. norm   :     0.1711134 α      lambda       -0.3466264E-04
   maximum displ.:     0.0986196 α      in ANC's #2, #7, #6, ...

........................................................................
.............................. CYCLE   19 ..............................
........................................................................

 iter      E             dE          RMSdq      gap      omega  full diag
   1    -95.7124493 -0.957124E+02  0.375E-02    3.69       0.0  T
   2    -95.7124496 -0.306783E-06  0.221E-02    3.69       1.0  T
   3    -95.7124494  0.261760E-06  0.326E-03    3.69       4.3  T
   4    -95.7124498 -0.384024E-06  0.105E-03    3.69      13.4  T
   5    -95.7124498 -0.207867E-07  0.514E-04    3.69      27.2  T
   6    -95.7124498 -0.108051E-08  0.164E-04    3.69      85.3  T
     SCC iter.                  ...        0 min,  0.024 sec
     gradient                   ...        0 min,  0.006 sec
 * total energy  :   -94.6704994 Eh     change       -0.2577454E-04 Eh
   gradient norm :     0.0022817 Eh/α   predicted    -0.1784107E-04 ( -30.78%)
   displ. norm   :     0.1926535 α      lambda       -0.3987485E-04
   maximum displ.:     0.1104971 α      in ANC's #2, #7, #6, ...

........................................................................
.............................. CYCLE   20 ..............................
........................................................................

 iter      E             dE          RMSdq      gap      omega  full diag
   1    -95.7123045 -0.957123E+02  0.435E-02    3.69       0.0  T
   2    -95.7123050 -0.449074E-06  0.257E-02    3.69       1.0  T
   3    -95.7123048  0.224706E-06  0.338E-03    3.69       4.1  T
   4    -95.7123052 -0.394431E-06  0.131E-03    3.69      10.6  T
   5    -95.7123052 -0.346638E-07  0.652E-04    3.69      21.5  T
   6    -95.7123052 -0.161137E-08  0.199E-04    3.69      70.4  T
     SCC iter.                  ...        0 min,  0.023 sec
     gradient                   ...        0 min,  0.006 sec
 * total energy  :   -94.6705282 Eh     change       -0.2880080E-04 Eh
   gradient norm :     0.0026884 Eh/α   predicted    -0.2068049E-04 ( -28.19%)
   displ. norm   :     0.1777639 α      lambda       -0.3594201E-04
   maximum displ.:     0.0995774 α      in ANC's #2, #7, #18, ...
 * RMSD in coord.:     0.4231882 α      energy gain  -0.6638887E-01 Eh

generating ANC from exact Hessian ...
Using Lindh-Hessian (1995)
 Shifting diagonal of input Hessian by   9.817261939489246E-003
 Lowest  eigenvalues of input Hessian
    0.000000    0.000000    0.000000    0.000000    0.000000    0.000000
    0.010000    0.010011    0.010056    0.010416    0.010472    0.010615
    0.010722    0.011211    0.011553    0.012529    0.012795    0.013283
 Highest eigenvalues
    2.386023    2.396299    2.396744    2.397485    2.580891    2.585575
 

........................................................................
.............................. CYCLE   21 ..............................
........................................................................

 iter      E             dE          RMSdq      gap      omega  full diag
   1    -95.7123579 -0.957124E+02  0.407E-02    3.69       0.0  T
   2    -95.7123585 -0.568952E-06  0.240E-02    3.69       1.0  T
   3    -95.7123585  0.114594E-07  0.263E-03    3.69       5.3  T
   4    -95.7123587 -0.181177E-06  0.125E-03    3.69      11.2  T
   5    -95.7123587 -0.280430E-07  0.698E-04    3.69      20.1  T
   6    -95.7123587 -0.340366E-08  0.251E-04    3.69      55.8  T
     SCC iter.                  ...        0 min,  0.021 sec
     gradient                   ...        0 min,  0.006 sec
 * total energy  :   -94.6705539 Eh     change       -0.2570089E-04 Eh
   gradient norm :     0.0025379 Eh/α   predicted     0.0000000E+00 (-100.00%)
   displ. norm   :     0.0194081 α      lambda       -0.1188742E-04
   maximum displ.:     0.0077494 α      in ANC's #2, #19, #20, ...

........................................................................
.............................. CYCLE   22 ..............................
........................................................................

 iter      E             dE          RMSdq      gap      omega  full diag
   1    -95.7126537 -0.957127E+02  0.639E-03    3.69       0.0  T
   2    -95.7126538 -0.950530E-07  0.383E-03    3.69       3.7  T
   3    -95.7126537  0.570183E-07  0.155E-03    3.69       9.0  T
   4    -95.7126538 -0.623011E-07  0.529E-04    3.69      26.4  T
   5    -95.7126538 -0.109339E-07  0.130E-04    3.69     107.7  T
     SCC iter.                  ...        0 min,  0.017 sec
     gradient                   ...        0 min,  0.005 sec
 * total energy  :   -94.6705645 Eh     change       -0.1056525E-04 Eh
   gradient norm :     0.0011963 Eh/α   predicted    -0.6890177E-05 ( -34.78%)
   displ. norm   :     0.0720768 α      lambda       -0.1819832E-04
   maximum displ.:     0.0321323 α      in ANC's #2, #19, #5, ...

........................................................................
.............................. CYCLE   23 ..............................
........................................................................

 iter      E             dE          RMSdq      gap      omega  full diag
   1    -95.7130628 -0.957131E+02  0.191E-02    3.69       0.0  T
   2    -95.7130633 -0.532926E-06  0.113E-02    3.69       1.2  T
   3    -95.7130631  0.209498E-06  0.310E-03    3.69       4.5  T
   4    -95.7130634 -0.234120E-06  0.118E-03    3.69      11.9  T
   5    -95.7130634 -0.537111E-07  0.380E-04    3.69      36.8  T
   6    -95.7130634 -0.213136E-08  0.183E-04    3.69      76.6  T
     SCC iter.                  ...        0 min,  0.027 sec
     gradient                   ...        0 min,  0.006 sec
 * total energy  :   -94.6705735 Eh     change       -0.8990565E-05 Eh
   gradient norm :     0.0023261 Eh/α   predicted    -0.9120382E-05 (   1.44%)
   displ. norm   :     0.0169019 α      lambda       -0.8035619E-05
   maximum displ.:     0.0090107 α      in ANC's #2, #5, #3, ...

........................................................................
.............................. CYCLE   24 ..............................
........................................................................

 iter      E             dE          RMSdq      gap      omega  full diag
   1    -95.7129194 -0.957129E+02  0.584E-03    3.69       0.0  T
   2    -95.7129195 -0.270553E-07  0.351E-03    3.69       4.0  T
   3    -95.7129194  0.345899E-07  0.103E-03    3.69      13.6  T
   4    -95.7129195 -0.384130E-07  0.297E-04    3.69      47.2  T
   5    -95.7129195 -0.297939E-08  0.922E-05    3.69     151.9  T
     SCC iter.                  ...        0 min,  0.016 sec
     gradient                   ...        0 min,  0.008 sec
 * total energy  :   -94.6705793 Eh     change       -0.5795317E-05 Eh
   gradient norm :     0.0015612 Eh/α   predicted    -0.4019295E-05 ( -30.65%)
   displ. norm   :     0.0512393 α      lambda       -0.9686049E-05
   maximum displ.:     0.0290548 α      in ANC's #2, #5, #3, ...

........................................................................
.............................. CYCLE   25 ..............................
........................................................................

 iter      E             dE          RMSdq      gap      omega  full diag
   1    -95.7126635 -0.957127E+02  0.134E-02    3.69       0.0  T
   2    -95.7126638 -0.228602E-06  0.795E-03    3.69       1.8  T
   3    -95.7126636  0.178276E-06  0.252E-03    3.69       5.6  T
   4    -95.7126638 -0.195267E-06  0.860E-04    3.69      16.3  T
   5    -95.7126638 -0.275601E-07  0.233E-04    3.69      60.2  T
     SCC iter.                  ...        0 min,  0.020 sec
     gradient                   ...        0 min,  0.012 sec
 * total energy  :   -94.6705873 Eh     change       -0.8010009E-05 Eh
   gradient norm :     0.0011604 Eh/α   predicted    -0.4857238E-05 ( -39.36%)
   displ. norm   :     0.0539869 α      lambda       -0.5133765E-05
   maximum displ.:     0.0309097 α      in ANC's #2, #5, #3, ...

........................................................................
.............................. CYCLE   26 ..............................
........................................................................

 iter      E             dE          RMSdq      gap      omega  full diag
   1    -95.7127335 -0.957127E+02  0.118E-02    3.69       0.0  T
   2    -95.7127335 -0.319845E-07  0.695E-03    3.69       2.0  T
   3    -95.7127335 -0.755495E-08  0.564E-04    3.69      24.8  T
   4    -95.7127335 -0.684501E-08  0.337E-04    3.69      41.5  T
     SCC iter.                  ...        0 min,  0.015 sec
     gradient                   ...        0 min,  0.016 sec
 * total energy  :   -94.6705937 Eh     change       -0.6449161E-05 Eh
   gradient norm :     0.0010147 Eh/α   predicted    -0.2578624E-05 ( -60.02%)
   displ. norm   :     0.1373684 α      lambda       -0.1172592E-04
   maximum displ.:     0.0765667 α      in ANC's #2, #5, #3, ...

........................................................................
.............................. CYCLE   27 ..............................
........................................................................

 iter      E             dE          RMSdq      gap      omega  full diag
   1    -95.7128145 -0.957128E+02  0.304E-02    3.69       0.0  T
   2    -95.7128147 -0.193086E-06  0.179E-02    3.69       1.0  T
   3    -95.7128147  0.257029E-08  0.188E-03    3.69       7.5  T
   4    -95.7128148 -0.103424E-06  0.859E-04    3.69      16.3  T
   5    -95.7128148 -0.921615E-08  0.437E-04    3.69      32.1  T
     SCC iter.                  ...        0 min,  0.015 sec
     gradient                   ...        0 min,  0.006 sec
 * total energy  :   -94.6706059 Eh     change       -0.1222374E-04 Eh
   gradient norm :     0.0007945 Eh/α   predicted    -0.5912677E-05 ( -51.63%)
   displ. norm   :     0.1373668 α      lambda       -0.8550240E-05
   maximum displ.:     0.0782008 α      in ANC's #2, #5, #3, ...

........................................................................
.............................. CYCLE   28 ..............................
........................................................................

 iter      E             dE          RMSdq      gap      omega  full diag
   1    -95.7128409 -0.957128E+02  0.297E-02    3.69       0.0  T
   2    -95.7128410 -0.166284E-06  0.175E-02    3.69       1.0  T
   3    -95.7128411 -0.448127E-07  0.137E-03    3.69      10.2  T
   4    -95.7128411 -0.386071E-07  0.768E-04    3.69      18.2  T
   5    -95.7128411 -0.570139E-08  0.425E-04    3.69      32.9  T
     SCC iter.                  ...        0 min,  0.040 sec
     gradient                   ...        0 min,  0.007 sec
 * total energy  :   -94.6706161 Eh     change       -0.1016932E-04 Eh
   gradient norm :     0.0007941 Eh/α   predicted    -0.4319897E-05 ( -57.52%)
   displ. norm   :     0.1504353 α      lambda       -0.8959314E-05
   maximum displ.:     0.0857220 α      in ANC's #2, #5, #3, ...

........................................................................
.............................. CYCLE   29 ..............................
........................................................................

 iter      E             dE          RMSdq      gap      omega  full diag
   1    -95.7128663 -0.957129E+02  0.325E-02    3.69       0.0  T
   2    -95.7128665 -0.188585E-06  0.192E-02    3.69       1.0  T
   3    -95.7128665 -0.473477E-07  0.145E-03    3.69       9.7  T
   4    -95.7128666 -0.443240E-07  0.780E-04    3.69      18.0  T
   5    -95.7128666 -0.327429E-08  0.469E-04    3.69      29.8  T
     SCC iter.                  ...        0 min,  0.016 sec
     gradient                   ...        0 min,  0.006 sec
 * total energy  :   -94.6706280 Eh     change       -0.1189792E-04 Eh
   gradient norm :     0.0008805 Eh/α   predicted    -0.4527993E-05 ( -61.94%)
   displ. norm   :     0.2376041 α      lambda       -0.1525036E-04
   maximum displ.:     0.1345677 α      in ANC's #2, #3, #5, ...

........................................................................
.............................. CYCLE   30 ..............................
........................................................................

 iter      E             dE          RMSdq      gap      omega  full diag
   1    -95.7126008 -0.957126E+02  0.518E-02    3.69       0.0  T
   2    -95.7126013 -0.480247E-06  0.306E-02    3.69       1.0  T
   3    -95.7126013 -0.628270E-07  0.244E-03    3.69       5.7  T
   4    -95.7126015 -0.140430E-06  0.127E-03    3.69      11.0  T
   5    -95.7126015 -0.181592E-07  0.722E-04    3.69      19.4  T
   6    -95.7126015 -0.565856E-08  0.200E-04    3.69      69.9  T
     SCC iter.                  ...        0 min,  0.018 sec
     gradient                   ...        0 min,  0.006 sec
 * total energy  :   -94.6706472 Eh     change       -0.1914185E-04 Eh
   gradient norm :     0.0010633 Eh/α   predicted    -0.7817307E-05 ( -59.16%)
   displ. norm   :     0.3505005 α      lambda       -0.2183707E-04
   maximum displ.:     0.1996622 α      in ANC's #2, #3, #5, ...

........................................................................
.............................. CYCLE   31 ..............................
........................................................................

 iter      E             dE          RMSdq      gap      omega  full diag
   1    -95.7119704 -0.957120E+02  0.770E-02    3.68       0.0  T
   2    -95.7119713 -0.910377E-06  0.455E-02    3.68       1.0  T
   3    -95.7119714 -0.835374E-07  0.352E-03    3.68       4.0  T
   4    -95.7119717 -0.309353E-06  0.185E-03    3.68       7.6  T
   5    -95.7119718 -0.449275E-07  0.956E-04    3.68      14.6  T
   6    -95.7119718 -0.803337E-08  0.254E-04    3.68      55.2  T
     SCC iter.                  ...        0 min,  0.018 sec
     gradient                   ...        0 min,  0.007 sec
 * total energy  :   -94.6706683 Eh     change       -0.2112919E-04 Eh
   gradient norm :     0.0020895 Eh/α   predicted    -0.1151672E-04 ( -45.49%)
   displ. norm   :     0.1869907 α      lambda       -0.2172601E-04
   maximum displ.:     0.1090925 α      in ANC's #2, #3, #1, ...

........................................................................
.............................. CYCLE   32 ..............................
........................................................................

 iter      E             dE          RMSdq      gap      omega  full diag
   1    -95.7121507 -0.957122E+02  0.406E-02    3.69       0.0  T
   2    -95.7121510 -0.274993E-06  0.240E-02    3.69       1.0  T
   3    -95.7121511 -0.421931E-07  0.173E-03    3.69       8.1  T
   4    -95.7121511 -0.799923E-07  0.756E-04    3.69      18.5  T
   5    -95.7121511 -0.603080E-09  0.299E-04    3.69      46.9  T
     SCC iter.                  ...        0 min,  0.014 sec
     gradient                   ...        0 min,  0.007 sec
 * total energy  :   -94.6706843 Eh     change       -0.1600890E-04 Eh
   gradient norm :     0.0015610 Eh/α   predicted    -0.1124696E-04 ( -29.75%)
   displ. norm   :     0.3216956 α      lambda       -0.2153909E-04
   maximum displ.:     0.1902380 α      in ANC's #2, #3, #1, ...

........................................................................
.............................. CYCLE   33 ..............................
........................................................................

 iter      E             dE          RMSdq      gap      omega  full diag
   1    -95.7122850 -0.957123E+02  0.694E-02    3.69       0.0  T
   2    -95.7122858 -0.824061E-06  0.410E-02    3.69       1.0  T
   3    -95.7122859 -0.537708E-07  0.314E-03    3.69       4.5  T
   4    -95.7122862 -0.275837E-06  0.134E-03    3.69      10.4  T
   5    -95.7122862  0.900101E-09  0.860E-04    3.69      16.3  T
   6    -95.7122862 -0.144094E-07  0.304E-04    3.69      46.1  T
     SCC iter.                  ...        0 min,  0.018 sec
     gradient                   ...        0 min,  0.007 sec
 * total energy  :   -94.6707075 Eh     change       -0.2321902E-04 Eh
   gradient norm :     0.0011950 Eh/α   predicted    -0.1126733E-04 ( -51.47%)
   displ. norm   :     0.3535182 α      lambda       -0.1966976E-04
   maximum displ.:     0.2078398 α      in ANC's #2, #3, #1, ...

........................................................................
.............................. CYCLE   34 ..............................
........................................................................

 iter      E             dE          RMSdq      gap      omega  full diag
   1    -95.7112832 -0.957113E+02  0.742E-02    3.69       0.0  T
   2    -95.7112840 -0.810305E-06  0.437E-02    3.69       1.0  T
   3    -95.7112837  0.320661E-06  0.421E-03    3.69       3.3  T
   4    -95.7112843 -0.653493E-06  0.183E-03    3.69       7.6  T
   5    -95.7112844 -0.575934E-07  0.846E-04    3.69      16.5  T
   6    -95.7112844 -0.365272E-08  0.270E-04    3.69      51.9  T
     SCC iter.                  ...        0 min,  0.021 sec
     gradient                   ...        0 min,  0.007 sec
 * total energy  :   -94.6707263 Eh     change       -0.1876738E-04 Eh
   gradient norm :     0.0022854 Eh/α   predicted    -0.1038251E-04 ( -44.68%)
   displ. norm   :     0.2030588 α      lambda       -0.3787954E-04
   maximum displ.:     0.1177573 α      in ANC's #2, #3, #10, ...

........................................................................
.............................. CYCLE   35 ..............................
........................................................................

 iter      E             dE          RMSdq      gap      omega  full diag
   1    -95.7134992 -0.957135E+02  0.411E-02    3.70       0.0  T
   2    -95.7135002 -0.101940E-05  0.243E-02    3.70       1.0  T
   3    -95.7134993  0.911990E-06  0.535E-03    3.70       2.6  T
   4    -95.7135004 -0.111864E-05  0.158E-03    3.70       8.8  T
   5    -95.7135005 -0.750134E-07  0.697E-04    3.70      20.1  T
   6    -95.7135005 -0.485295E-08  0.306E-04    3.70      45.8  T
     SCC iter.                  ...        0 min,  0.021 sec
     gradient                   ...        0 min,  0.010 sec
 * total energy  :   -94.6707368 Eh     change       -0.1055731E-04 Eh
   gradient norm :     0.0029761 Eh/α   predicted    -0.1972512E-04 (  86.84%)
   displ. norm   :     0.1778088 α      lambda       -0.2449840E-04
   maximum displ.:     0.1041873 α      in ANC's #2, #3, #1, ...

........................................................................
.............................. CYCLE   36 ..............................
........................................................................

 iter      E             dE          RMSdq      gap      omega  full diag
   1    -95.7121177 -0.957121E+02  0.388E-02    3.70       0.0  T
   2    -95.7121181 -0.465854E-06  0.230E-02    3.70       1.0  T
   3    -95.7121173  0.856307E-06  0.477E-03    3.70       2.9  T
   4    -95.7121183 -0.100597E-05  0.129E-03    3.70      10.9  T
   5    -95.7121183 -0.387765E-07  0.547E-04    3.70      25.6  T
   6    -95.7121183 -0.103329E-08  0.226E-04    3.70      61.9  T
     SCC iter.                  ...        0 min,  0.031 sec
     gradient                   ...        0 min,  0.006 sec
 * total energy  :   -94.6707495 Eh     change       -0.1264706E-04 Eh
   gradient norm :     0.0016113 Eh/α   predicted    -0.1263740E-04 (  -0.08%)
   displ. norm   :     0.0607470 α      lambda       -0.9317360E-05
   maximum displ.:     0.0328872 α      in ANC's #2, #4, #10, ...

........................................................................
.............................. CYCLE   37 ..............................
........................................................................

 iter      E             dE          RMSdq      gap      omega  full diag
   1    -95.7122915 -0.957123E+02  0.132E-02    3.69       0.0  T
   2    -95.7122916 -0.146984E-06  0.774E-03    3.69       1.8  T
   3    -95.7122916  0.308287E-07  0.130E-03    3.69      10.7  T
   4    -95.7122916 -0.430388E-07  0.519E-04    3.69      27.0  T
   5    -95.7122916 -0.805591E-08  0.220E-04    3.69      63.5  T
     SCC iter.                  ...        0 min,  0.015 sec
     gradient                   ...        0 min,  0.007 sec
 * total energy  :   -94.6707586 Eh     change       -0.9139121E-05 Eh
   gradient norm :     0.0014076 Eh/α   predicted    -0.4667158E-05 ( -48.93%)
   displ. norm   :     0.1373362 α      lambda       -0.1030882E-04
   maximum displ.:     0.0782313 α      in ANC's #2, #10, #4, ...

........................................................................
.............................. CYCLE   38 ..............................
........................................................................

 iter      E             dE          RMSdq      gap      omega  full diag
   1    -95.7128799 -0.957129E+02  0.270E-02    3.70       0.0  T
   2    -95.7128800 -0.116384E-06  0.160E-02    3.70       1.0  T
   3    -95.7128800  0.965106E-08  0.138E-03    3.70      10.2  T
   4    -95.7128801 -0.568220E-07  0.620E-04    3.70      22.6  T
   5    -95.7128801 -0.298039E-08  0.373E-04    3.70      37.5  T
     SCC iter.                  ...        0 min,  0.015 sec
     gradient                   ...        0 min,  0.007 sec
 * total energy  :   -94.6707691 Eh     change       -0.1045849E-04 Eh
   gradient norm :     0.0008718 Eh/α   predicted    -0.5198789E-05 ( -50.29%)
   displ. norm   :     0.2307933 α      lambda       -0.6536734E-05
   maximum displ.:     0.1413210 α      in ANC's #2, #4, #3, ...

........................................................................
.............................. CYCLE   39 ..............................
........................................................................

 iter      E             dE          RMSdq      gap      omega  full diag
   1    -95.7121359 -0.957121E+02  0.477E-02    3.69       0.0  T
   2    -95.7121362 -0.299141E-06  0.282E-02    3.69       1.0  T
   3    -95.7121360  0.177830E-06  0.286E-03    3.69       4.9  T
   4    -95.7121363 -0.308689E-06  0.111E-03    3.69      12.6  T
   5    -95.7121364 -0.196170E-07  0.502E-04    3.69      27.9  T
   6    -95.7121364 -0.109675E-08  0.168E-04    3.69      83.2  T
     SCC iter.                  ...        0 min,  0.018 sec
     gradient                   ...        0 min,  0.007 sec
 * total energy  :   -94.6707740 Eh     change       -0.4960262E-05 Eh
   gradient norm :     0.0015498 Eh/α   predicted    -0.3350459E-05 ( -32.45%)
   displ. norm   :     0.0723479 α      lambda       -0.7803065E-05
   maximum displ.:     0.0343397 α      in ANC's #2, #4, #8, ...

........................................................................
.............................. CYCLE   40 ..............................
........................................................................

 iter      E             dE          RMSdq      gap      omega  full diag
   1    -95.7134975 -0.957135E+02  0.148E-02    3.70       0.0  T
   2    -95.7134978 -0.340650E-06  0.883E-03    3.70       1.6  T
   3    -95.7134977  0.966892E-07  0.230E-03    3.70       6.1  T
   4    -95.7134979 -0.135153E-06  0.658E-04    3.70      21.3  T
   5    -95.7134979 -0.127683E-07  0.324E-04    3.70      43.3  T
     SCC iter.                  ...        0 min,  0.017 sec
     gradient                   ...        0 min,  0.007 sec
 * total energy  :   -94.6707775 Eh     change       -0.3452071E-05 Eh
   gradient norm :     0.0011057 Eh/α   predicted    -0.3912594E-05 (  13.34%)
   displ. norm   :     0.1109031 α      lambda       -0.5100222E-05
   maximum displ.:     0.0690844 α      in ANC's #2, #3, #4, ...

........................................................................
.............................. CYCLE   41 ..............................
........................................................................

 iter      E             dE          RMSdq      gap      omega  full diag
   1    -95.7128262 -0.957128E+02  0.249E-02    3.70       0.0  T
   2    -95.7128263 -0.129579E-06  0.147E-02    3.70       1.0  T
   3    -95.7128262  0.104835E-06  0.192E-03    3.70       7.3  T
   4    -95.7128263 -0.140289E-06  0.685E-04    3.70      20.5  T
   5    -95.7128263 -0.113491E-07  0.297E-04    3.70      47.1  T
     SCC iter.                  ...        0 min,  0.017 sec
     gradient                   ...        0 min,  0.007 sec
 * total energy  :   -94.6707818 Eh     change       -0.4349578E-05 Eh
   gradient norm :     0.0008871 Eh/α   predicted    -0.2566821E-05 ( -40.99%)
   displ. norm   :     0.0972771 α      lambda       -0.4848124E-05
   maximum displ.:     0.0613198 α      in ANC's #2, #4, #3, ...

   *** GEOMETRY OPTIMIZATION CONVERGED AFTER 41 ITERATIONS ***

------------------------------------------------------------------------
 total energy gain   :        -0.0666425 Eh      -41.8188 kcal/mol
 total RMSD          :         0.6890088 a0        0.3646 Å
 total power (kW/mol):        -4.2675580 (step) -127.5002 (real)
------------------------------------------------------------------------

 ANCopt (total)                0 d,  0 h,  0 min,  1.372 sec
 optimizer setup                ...        0 min,  0.000 sec (  0.009%)
 model hessian                  ...        0 min,  0.037 sec (  2.716%)
 ANC generation                 ...        0 min,  0.032 sec (  2.317%)
 coordinate transformation      ...        0 min,  0.001 sec (  0.076%)
 single point calculation       ...        0 min,  1.274 sec ( 92.814%)
 optimization log               ...        0 min,  0.018 sec (  1.330%)
 hessian update                 ...        0 min,  0.004 sec (  0.281%)
 rational function              ...        0 min,  0.004 sec (  0.324%)

================
 final structure:
================
51
 xtb: 6.7.1 (edcfbbe)
C           -7.38423904727011        1.69544867532628       -1.17238278587266
C           -7.22266122331510        1.50698024308727        0.12911255722598
C           -5.92998886585028        1.17007280017589        0.75902661279399
O           -5.77729794332349        0.99779724701420        1.94257822678458
O           -4.92434205922594        1.07188596062444       -0.12919593655527
C           -3.65437751116523        0.75350505465495        0.41656834357356
C           -2.67156014995852        0.60708546962924       -0.74314499744426
N           -1.34034988230109        0.28624496967368       -0.24916607141725
C           -0.49830553708364        1.34430438826442        0.04640807264352
O           -0.81500131529304        2.48977281194853       -0.13142300368215
N            0.73631350843135        0.98392221749333        0.55229228187842
C            1.65919031678264        2.06159471613075        0.88217532111939
C            2.30197026556094        2.65515344682649       -0.37959442187119
O            3.50117913809465        3.34548941514480       -0.07319272069894
C            3.37642153336630        4.52631781263988        0.56249428734304
O            2.31351087378663        4.99679019487116        0.88159382478939
C            4.67799584900894        5.17472307738064        0.82220858866864
C            5.85017854879400        4.62461763366571        0.54068415075488
C            1.16700565243374       -0.31584807752924        0.73896989502162
O            2.26411581157962       -0.58659970283365        1.15247700762501
N            0.23429427705019       -1.28921971726289        0.43020368918415
C            0.63564589725448       -2.67734995611929        0.60674243532253
C            1.35312016642885       -3.19485105295537       -0.63792408864223
O            1.71362368438293       -4.54625267588619       -0.40067934136091
C            2.32707462408439       -5.17018757344674       -1.42239978346843
O            2.55774852668421       -4.62936043022034       -2.47533002137817
C            2.68010885694522       -6.57054285910998       -1.11414577259802
C            2.44154504357537       -7.15504763735624        0.05078320905502
C           -1.03205469741578       -1.04798638685645       -0.06919827580044
O           -1.80420062991586       -1.93258691236077       -0.33165726772332
H           -6.55640851267693        1.60947270160010       -1.85549690277115
H           -8.34506419121534        1.94041526140016       -1.59286039187473
H           -8.03939341776549        1.58878054988698        0.83179630461421
H           -3.33569800124456        1.55456357246105        1.09442739462013
H           -3.72407765222185       -0.18063947080501        0.98681725884865
H           -2.61166099396768        1.54666954714956       -1.29452387565432
H           -2.99565343547275       -0.20149526768049       -1.40021700354096
H            2.43811412593957        1.63765805326843        1.51926449698280
H            1.11124384526426        2.84166937975460        1.41419642993605
H            2.60007746301717        1.85700330737691       -1.06341354512706
H            1.59471908419285        3.33330348166908       -0.86846542338553
H            4.59242676837743        6.14912570335869        1.28186443277733
H            5.91638787244950        3.64981693032717        0.08704233558014
H            6.77681418227802        5.13124315958441        0.75294320665946
H            1.30665890485644       -2.73307776129632        1.46531141806448
H           -0.26356562203682       -3.26826861895642        0.78664250637998
H            0.69814828681803       -3.13906078363548       -1.51584893832991
H            2.25600123984752       -2.60505986370168       -0.83667016094705
H            3.16159233388388       -7.08639833133259       -1.93241013910588
H            1.96348319237249       -6.62253632107989        0.85531408033695
H            2.71919081518595       -8.17905938198212        0.23587850066413
 
 Bond Distances (Angstroems)
 ---------------------------
C1-C2=1.3250         C1-H31=1.0767        C1-H32=1.0770        C2-C1=1.3250         C2-C3=1.4769         C2-H33=1.0805        
C3-C2=1.4769         C3-O4=1.2057         C3-O5=1.3453         O4-C3=1.2057         O5-C3=1.3453         O5-C6=1.4185         
C6-O5=1.4185         C6-C7=1.5272         C6-H34=1.0967        C6-H35=1.0967        C7-C6=1.5272         C7-N8=1.4557         
C7-H36=1.0911        C7-H37=1.0911        N8-C7=1.4557         N8-C9=1.3842         N8-C29=1.3812        C9-N8=1.3842         
C9-O10=1.2017        C9-N11=1.3821        O10-C9=1.2017        N11-C9=1.3821        N11-C12=1.4567       N11-C19=1.3819       
C12-N11=1.4567       C12-C13=1.5354       C12-H38=1.0919       C12-H39=1.0917       C13-C12=1.5354       C13-O14=1.4172       
C13-H40=1.0925       C13-H41=1.0950       O14-C13=1.4172       O14-C15=1.3469       C15-O14=1.3469       C15-O16=1.2054       
C15-C17=1.4772       O16-C15=1.2054       C17-C15=1.4772       C17-C18=1.3251       C17-H42=1.0808       C18-C17=1.3251       
C18-H43=1.0772       C18-H44=1.0772       C19-N11=1.3819       C19-O20=1.2033       C19-N21=1.3830       O20-C19=1.2033       
N21-C19=1.3830       N21-C22=1.4557       N21-C29=1.3825       C22-N21=1.4557       C22-C23=1.5270       C22-H45=1.0911       
C22-H46=1.0909       C23-C22=1.5270       C23-O24=1.4186       C23-H47=1.0967       C23-H48=1.0966       O24-C23=1.4186       
O24-C25=1.3452       C25-O24=1.3452       C25-O26=1.2060       C25-C27=1.4767       O26-C25=1.2060       C27-C25=1.4767       
C27-C28=1.3250       C27-H49=1.0805       C28-C27=1.3250       C28-H50=1.0767       C28-H51=1.0770       C29-N8=1.3812        
C29-N21=1.3825       C29-O30=1.2032       O30-C29=1.2032       H31-C1=1.0767        H32-C1=1.0770        H33-C2=1.0805        
H34-C6=1.0967        H35-C6=1.0967        H36-C7=1.0911        H37-C7=1.0911        H38-C12=1.0919       H39-C12=1.0917       
H40-C13=1.0925       H41-C13=1.0950       H42-C17=1.0808       H43-C18=1.0772       H44-C18=1.0772       H45-C22=1.0911       
H46-C22=1.0909       H47-C23=1.0967       H48-C23=1.0966       H49-C27=1.0805       H50-C28=1.0767       H51-C28=1.0770       
 C  H  Rav=1.0869 sigma=0.0079  Rmin=1.0767  Rmax=1.0967    21
 C  C  Rav=1.4439 sigma=0.0869  Rmin=1.3250  Rmax=1.5354     9
 N  C  Rav=1.4070 sigma=0.0347  Rmin=1.3812  Rmax=1.4567     9
 O  C  Rav=1.2931 sigma=0.0925  Rmin=1.2017  Rmax=1.4186    12
 
 selected bond angles (degree)
 --------------------
H31-C1-C2=121.20               H32-C1-C2=121.64               H32-C1-H31=117.15              C3-C2-C1=123.93                
H33-C2-C1=122.40               H33-C2-C3=113.67               O4-C3-C2=124.20                O5-C3-C2=112.91                
O5-C3-O4=122.89                C6-O5-C3=115.57                C7-C6-O5=107.79                H34-C6-O5=109.51               
H34-C6-C7=110.63               H35-C6-O5=109.53               H35-C6-C7=110.74               H35-C6-H34=108.62              
N8-C7-C6=110.61                H36-C7-C6=109.67               H36-C7-N8=108.12               H37-C7-C6=109.71               
H37-C7-N8=108.22               H37-C7-H36=110.50              C9-N8-C7=117.41                C29-N8-C7=117.47               
C29-N8-C9=125.09               O10-C9-N8=122.46               N11-C9-N8=114.98               N11-C9-O10=122.56              
 
 selected dihedral angles (degree)
 ---------------------------------
C3-C2-C1-H31=  0.00           C3-C2-C1-H32=180.02           H33-C2-C1-H31=179.97          H33-C2-C1-H32=359.97          
O4-C3-C2-C1=179.98            O4-C3-C2-H33=  0.00           O5-C3-C2-C1=359.95            O5-C3-C2-H33=179.99           
C6-O5-C3-C2=179.83            C6-O5-C3-O4=359.80            C7-C6-O5-C3=176.76            H34-C6-O5-C3=297.18           
H35-C6-O5-C3= 56.20           N8-C7-C6-O5=179.67            N8-C7-C6-H34= 59.96           N8-C7-C6-H35=299.47           
H36-C7-C6-O5= 60.51           H36-C7-C6-H34=300.80          H36-C7-C6-H35=180.31          H37-C7-C6-O5=298.98           
H37-C7-C6-H34=179.27          H37-C7-C6-H35= 58.78          C9-N8-C7-C6=270.41            C9-N8-C7-H36= 30.50           
C9-N8-C7-H37=150.21           C29-N8-C7-C6= 88.27           C29-N8-C7-H36=208.36          C29-N8-C7-H37=328.07          
O10-C9-N8-C7=357.56           O10-C9-N8-C29=179.88          N11-C9-N8-C7=177.99           N11-C9-N8-C29=  0.30          
           -------------------------------------------------
          |                Final Singlepoint                |
           -------------------------------------------------

          ...................................................
          :                      SETUP                      :
          :.................................................:
          :  # basis functions                 141          :
          :  # atomic orbitals                 141          :
          :  # shells                           81          :
          :  # electrons                       162          :
          :  max. iterations                   250          :
          :  Hamiltonian                  GFN2-xTB          :
          :  restarted?                      false          :
          :  GBSA solvation                  false          :
          :  PC potential                    false          :
          :  electronic temp.          300.0000000     K    :
          :  accuracy                    1.0000000          :
          :  -> integral cutoff          0.2500000E+02      :
          :  -> integral neglect         0.1000000E-07      :
          :  -> SCF convergence          0.1000000E-05 Eh   :
          :  -> wf. convergence          0.1000000E-03 e    :
          :  Broyden damping             0.4000000          :
          :  net charge                          0          :
          :  unpaired electrons                  0          :
          ...................................................

 iter      E             dE          RMSdq      gap      omega  full diag
   1    -95.7128263 -0.957128E+02  0.823E-05    3.70       0.0  T
   2    -95.7128263 -0.872689E-10  0.500E-05    3.70     280.2  T
   3    -95.7128263 -0.247411E-10  0.346E-05    3.70     404.7  T

   *** convergence criteria satisfied after 3 iterations ***

         #    Occupation            Energy/Eh            Energy/eV
      -------------------------------------------------------------
         1        2.0000           -0.7621670             -20.7396
       ...           ...                  ...                  ...
        75        2.0000           -0.4483450             -12.2001
        76        2.0000           -0.4471585             -12.1678
        77        2.0000           -0.4455160             -12.1231
        78        2.0000           -0.4450801             -12.1112
        79        2.0000           -0.4247515             -11.5581
        80        2.0000           -0.4233791             -11.5207
        81        2.0000           -0.4227537             -11.5037 (HOMO)
        82                         -0.2868376              -7.8052 (LUMO)
        83                         -0.2867987              -7.8042
        84                         -0.2848689              -7.7517
        85                         -0.2696976              -7.3388
        86                         -0.2690926              -7.3224
       ...                                ...                  ...
       141                          0.6938509              18.8806
      -------------------------------------------------------------
                  HL-Gap            0.1359161 Eh            3.6985 eV
             Fermi-level           -0.3547956 Eh           -9.6545 eV

 SCC (total)                   0 d,  0 h,  0 min,  0.022 sec
 SCC setup                      ...        0 min,  0.000 sec (  0.520%)
 Dispersion                     ...        0 min,  0.000 sec (  1.641%)
 classical contributions        ...        0 min,  0.000 sec (  0.233%)
 integral evaluation            ...        0 min,  0.002 sec (  7.609%)
 iterations                     ...        0 min,  0.011 sec ( 50.337%)
 molecular gradient             ...        0 min,  0.008 sec ( 38.633%)
 printout                       ...        0 min,  0.000 sec (  0.901%)

         :::::::::::::::::::::::::::::::::::::::::::::::::::::
         ::                     SUMMARY                     ::
         :::::::::::::::::::::::::::::::::::::::::::::::::::::
         :: total energy             -94.670781846574 Eh    ::
         :: gradient norm              0.000884793680 Eh/a0 ::
         :: HOMO-LUMO gap              3.698465711941 eV    ::
         ::.................................................::
         :: SCC energy               -95.713145769395 Eh    ::
         :: -> isotropic ES            0.227165225227 Eh    ::
         :: -> anisotropic ES          0.001698321345 Eh    ::
         :: -> anisotropic XC          0.014089471220 Eh    ::
         :: -> dispersion             -0.048689106261 Eh    ::
         :: repulsion energy           1.042363922821 Eh    ::
         :: add. restraining           0.000000000000 Eh    ::
         :: total charge              -0.000000000000 e     ::
         :::::::::::::::::::::::::::::::::::::::::::::::::::::

           -------------------------------------------------
          |                Property Printout                |
           -------------------------------------------------

    * Orbital Energies and Occupations

         #    Occupation            Energy/Eh            Energy/eV
      -------------------------------------------------------------
         1        2.0000           -0.7621670             -20.7396
       ...           ...                  ...                  ...
        69        2.0000           -0.4670909             -12.7102
        70        2.0000           -0.4599304             -12.5153
        71        2.0000           -0.4560268             -12.4091
        72        2.0000           -0.4543383             -12.3632
        73        2.0000           -0.4529322             -12.3249
        74        2.0000           -0.4498533             -12.2411
        75        2.0000           -0.4483450             -12.2001
        76        2.0000           -0.4471585             -12.1678
        77        2.0000           -0.4455160             -12.1231
        78        2.0000           -0.4450801             -12.1112
        79        2.0000           -0.4247515             -11.5581
        80        2.0000           -0.4233791             -11.5207
        81        2.0000           -0.4227537             -11.5037 (HOMO)
        82                         -0.2868376              -7.8052 (LUMO)
        83                         -0.2867987              -7.8042
        84                         -0.2848689              -7.7517
        85                         -0.2696976              -7.3388
        86                         -0.2690926              -7.3224
        87                         -0.1811978              -4.9306
        88                         -0.1745157              -4.7488
        89                         -0.1744185              -4.7462
        90                         -0.1725013              -4.6940
        91                         -0.0957231              -2.6048
        92                         -0.0425149              -1.1569
       ...                                ...                  ...
       141                          0.6938509              18.8806
      -------------------------------------------------------------
                  HL-Gap            0.1359161 Eh            3.6985 eV
             Fermi-level           -0.3547956 Eh           -9.6545 eV

     #   Z          covCN         q      C6AA      α(0)
     1   6 C        2.838    -0.061    29.513     8.903
     2   6 C        2.887    -0.057    29.403     8.890
     3   6 C        2.729     0.356    20.955     7.494
     4   8 O        0.857    -0.404    21.768     6.255
     5   8 O        1.705    -0.259    18.292     5.775
     6   6 C        3.710     0.080    19.380     6.292
     7   6 C        3.755    -0.004    20.703     6.488
     8   7 N        2.747    -0.124    23.693     7.229
     9   6 C        2.715     0.326    21.455     7.582
    10   8 O        0.859    -0.395    21.572     6.227
    11   7 N        2.746    -0.124    23.690     7.229
    12   6 C        3.753    -0.004    20.704     6.488
    13   6 C        3.703     0.074    19.489     6.312
    14   8 O        1.705    -0.259    18.294     5.775
    15   6 C        2.723     0.354    20.996     7.501
    16   8 O        0.857    -0.401    21.702     6.246
    17   6 C        2.887    -0.057    29.424     8.893
    18   6 C        2.838    -0.061    29.507     8.902
    19   6 C        2.713     0.327    21.436     7.579
    20   8 O        0.859    -0.402    21.724     6.249
    21   7 N        2.747    -0.124    23.694     7.230
    22   6 C        3.755    -0.003    20.695     6.487
    23   6 C        3.710     0.080    19.376     6.291
    24   8 O        1.705    -0.259    18.291     5.774
    25   6 C        2.729     0.356    20.956     7.494
    26   8 O        0.857    -0.405    21.788     6.258
    27   6 C        2.887    -0.057    29.406     8.890
    28   6 C        2.838    -0.061    29.509     8.902
    29   6 C        2.714     0.327    21.441     7.580
    30   8 O        0.859    -0.402    21.728     6.250
    31   1 H        0.926     0.074     2.040     2.233
    32   1 H        0.926     0.067     2.114     2.273
    33   1 H        0.926     0.076     2.021     2.223
    34   1 H        0.924     0.065     2.142     2.289
    35   1 H        0.924     0.066     2.128     2.281
    36   1 H        0.924     0.098     1.800     2.098
    37   1 H        0.924     0.097     1.816     2.107
    38   1 H        0.924     0.096     1.825     2.113
    39   1 H        0.924     0.100     1.786     2.090
    40   1 H        0.924     0.065     2.142     2.289
    41   1 H        0.924     0.077     2.009     2.217
    42   1 H        0.926     0.076     2.022     2.224
    43   1 H        0.926     0.076     2.021     2.223
    44   1 H        0.926     0.068     2.111     2.272
    45   1 H        0.924     0.096     1.819     2.109
    46   1 H        0.924     0.099     1.797     2.096
    47   1 H        0.924     0.064     2.152     2.294
    48   1 H        0.924     0.066     2.133     2.284
    49   1 H        0.926     0.076     2.021     2.223
    50   1 H        0.926     0.074     2.038     2.232
    51   1 H        0.926     0.068     2.110     2.272

 Mol. C6AA /au·bohr⁶  :      29463.015343
 Mol. C8AA /au·bohr⁸  :     674050.014379
 Mol. α(0) /au        :        259.908911


Wiberg/Mayer (AO) data.
largest (>0.10) Wiberg bond orders for each atom

 ---------------------------------------------------------------------------
     #   Z sym  total        # sym  WBO       # sym  WBO       # sym  WBO
 ---------------------------------------------------------------------------
     1   6 C    3.982 --     2 C    1.931    32 H    0.974    31 H    0.971
     2   6 C    3.987 --     1 C    1.931     3 C    1.017    33 H    0.962
     3   6 C    3.916 --     4 O    1.735     5 O    1.104     2 C    1.017
     4   8 O    2.039 --     3 C    1.735     5 O    0.169
     5   8 O    2.297 --     3 C    1.104     6 C    0.957     4 O    0.169
     6   6 C    3.935 --     7 C    0.993    34 H    0.965    35 H    0.965
                             5 O    0.957
     7   6 C    3.941 --     6 C    0.993     8 N    0.966    37 H    0.963
                            36 H    0.963
     8   7 N    3.532 --    29 C    1.103     9 C    1.095     7 C    0.966
                            30 O    0.131    10 O    0.131
     9   6 C    3.961 --    10 O    1.685    11 N    1.099     8 N    1.095
    10   8 O    2.042 --     9 C    1.685     8 N    0.131    11 N    0.130
    11   7 N    3.534 --    19 C    1.103     9 C    1.099    12 C    0.963
                            20 O    0.131    10 O    0.130
    12   6 C    3.938 --    13 C    0.984    11 N    0.963    38 H    0.963
                            39 H    0.962
    13   6 C    3.935 --    12 C    0.984    40 H    0.971    41 H    0.965
                            14 O    0.961
    14   8 O    2.300 --    15 C    1.101    13 C    0.961    16 O    0.167
    15   6 C    3.918 --    16 O    1.738    14 O    1.101    17 C    1.017
    16   8 O    2.043 --    15 C    1.738    14 O    0.167
    17   6 C    3.987 --    18 C    1.930    15 C    1.017    42 H    0.962
    18   6 C    3.981 --    17 C    1.930    44 H    0.974    43 H    0.971
    19   6 C    3.961 --    20 O    1.676    11 N    1.103    21 N    1.098
    20   8 O    2.035 --    19 C    1.676    11 N    0.131    21 N    0.129
    21   7 N    3.531 --    29 C    1.099    19 C    1.098    22 C    0.966
                            30 O    0.130    20 O    0.129
    22   6 C    3.941 --    23 C    0.993    21 N    0.966    45 H    0.963
                            46 H    0.963
    23   6 C    3.935 --    22 C    0.993    47 H    0.966    48 H    0.965
                            24 O    0.957
    24   8 O    2.298 --    25 C    1.104    23 C    0.957    26 O    0.169
    25   6 C    3.916 --    26 O    1.734    24 O    1.104    27 C    1.017
    26   8 O    2.038 --    25 C    1.734    24 O    0.169
    27   6 C    3.987 --    28 C    1.930    25 C    1.017    49 H    0.962
    28   6 C    3.982 --    27 C    1.930    51 H    0.974    50 H    0.971
    29   6 C    3.961 --    30 O    1.677     8 N    1.103    21 N    1.099
    30   8 O    2.034 --    29 C    1.677     8 N    0.131    21 N    0.130
    31   1 H    0.994 --     1 C    0.971
    32   1 H    0.995 --     1 C    0.974
    33   1 H    0.994 --     2 C    0.962
    34   1 H    0.996 --     6 C    0.965
    35   1 H    0.996 --     6 C    0.965
    36   1 H    0.990 --     7 C    0.963
    37   1 H    0.990 --     7 C    0.963
    38   1 H    0.990 --    12 C    0.963
    39   1 H    0.989 --    12 C    0.962
    40   1 H    0.996 --    13 C    0.971
    41   1 H    0.994 --    13 C    0.965
    42   1 H    0.994 --    17 C    0.962
    43   1 H    0.994 --    18 C    0.971
    44   1 H    0.995 --    18 C    0.974
    45   1 H    0.990 --    22 C    0.963
    46   1 H    0.990 --    22 C    0.963
    47   1 H    0.996 --    23 C    0.966
    48   1 H    0.996 --    23 C    0.965
    49   1 H    0.994 --    27 C    0.962
    50   1 H    0.994 --    28 C    0.971
    51   1 H    0.995 --    28 C    0.974
 ---------------------------------------------------------------------------

Topologies differ in total number of bonds
Writing topology from bond orders to xtbtopo.mol

molecular dipole:
                 x           y           z       tot (Debye)
 q only:        0.530      -0.560      -0.301
   full:        0.574      -0.612      -0.336       2.297
molecular quadrupole (traceless):
                xx          xy          yy          xz          yz          zz
 q only:       16.160       4.518       1.436      23.561     -16.647     -17.596
  q+dip:       14.858       4.797      -0.779      23.296     -17.713     -14.079
   full:       14.562       5.837      -0.753      23.427     -17.855     -13.808

           -------------------------------------------------
          |                Geometry Summary                 |
           -------------------------------------------------

      molecular mass/u    :      423.3747559
   center of mass at/Å    :       -0.0437199       0.0418398       0.0386751
  moments of inertia/u·Å² :        0.4760340E+04   0.5446830E+04   0.9676445E+04
rotational constants/cm⁻¹ :        0.3541267E-02   0.3094943E-02   0.1742131E-02

 * 48 selected distances

     #   Z          #   Z                                           value/Å
     1   6 C        2   6 C                                       1.3249597
     3   6 C        4   8 O                                       1.2057313
     3   6 C        5   8 O                                       1.3453274
     5   8 O        6   6 C                                       1.4184623
     6   6 C        7   6 C                                       1.5271883
     7   6 C        8   7 N                                       1.4557043
     8   7 N        9   6 C                                       1.3841578
     9   6 C       10   8 O                                       1.2016731
     9   6 C       11   7 N                                       1.3820560
    11   7 N       12   6 C                                       1.4566753
    12   6 C       13   6 C                                       1.5354287 (max)
    13   6 C       14   8 O                                       1.4172325
    14   8 O       15   6 C                                       1.3468550
    15   6 C       16   8 O                                       1.2053830
    17   6 C       18   6 C                                       1.3250980
    11   7 N       19   6 C                                       1.3819361
    19   6 C       20   8 O                                       1.2033061
    19   6 C       21   7 N                                       1.3830184
    21   7 N       22   6 C                                       1.4557318
    22   6 C       23   6 C                                       1.5270140
    23   6 C       24   8 O                                       1.4186383
    24   8 O       25   6 C                                       1.3451876
    25   6 C       26   8 O                                       1.2059713
    27   6 C       28   6 C                                       1.3249975
     8   7 N       29   6 C                                       1.3811618
    21   7 N       29   6 C                                       1.3824746
    29   6 C       30   8 O                                       1.2031677
     1   6 C       31   1 H                                       1.0767267 (min)
     1   6 C       32   1 H                                       1.0770307
     2   6 C       33   1 H                                       1.0805126
     6   6 C       34   1 H                                       1.0966971
     6   6 C       35   1 H                                       1.0966623
     7   6 C       36   1 H                                       1.0910660
     7   6 C       37   1 H                                       1.0911384
    12   6 C       38   1 H                                       1.0919375
    12   6 C       39   1 H                                       1.0916998
    13   6 C       40   1 H                                       1.0924836
    13   6 C       41   1 H                                       1.0950282
    17   6 C       42   1 H                                       1.0807711
    18   6 C       43   1 H                                       1.0772238
    18   6 C       44   1 H                                       1.0772080
    22   6 C       45   1 H                                       1.0911026
    22   6 C       46   1 H                                       1.0909310
    23   6 C       47   1 H                                       1.0967465
    23   6 C       48   1 H                                       1.0966075
    27   6 C       49   1 H                                       1.0805045
    28   6 C       50   1 H                                       1.0767458
    28   6 C       51   1 H                                       1.0770087

 * 4 distinct bonds (by element types)

   Z      Z             #   av. dist./Å        max./Å        min./Å
   1 H    6 C          21     1.0869444     1.0967465     1.0767267
   6 C    6 C           6     1.4274477     1.5354287     1.3249597
   6 C    7 N           9     1.4069907     1.4566753     1.3811618
   6 C    8 O          12     1.2930780     1.4186383     1.2016731


optimized geometry written to: xtbopt.xyz


           -------------------------------------------------
          | TOTAL ENERGY              -94.670781846574 Eh   |
          | GRADIENT NORM               0.000884793680 Eh/α |
          | HOMO-LUMO GAP               3.698465711941 eV   |
           -------------------------------------------------
########################################################################
[WARNING] Runtime exception occurred
-2- restart_readRestart: Dimension missmatch in restart file.
-1- restart_readRestart: Number of electron missmatch in restart file.
########################################################################

------------------------------------------------------------------------
 * finished run on 2025/12/01 at 14:23:21.580     
------------------------------------------------------------------------
 total:
 * wall-time:     0 d,  0 h,  0 min,  1.485 sec
 *  cpu-time:     0 d,  0 h,  0 min, 33.870 sec
 * ratio c/w:    22.806 speedup
 SCF:
 * wall-time:     0 d,  0 h,  0 min,  0.077 sec
 *  cpu-time:     0 d,  0 h,  0 min,  1.699 sec
 * ratio c/w:    22.062 speedup
 ANC optimizer:
 * wall-time:     0 d,  0 h,  0 min,  1.395 sec
 *  cpu-time:     0 d,  0 h,  0 min, 31.994 sec
 * ratio c/w:    22.936 speedup

normal termination of xtb
