      -----------------------------------------------------------      
     |                   =====================                   |     
     |                           x T B                           |     
     |                   =====================                   |     
     |                         S. Grimme                         |     
     |          Mulliken Center for Theoretical Chemistry        |     
     |                    University of Bonn                     |     
      -----------------------------------------------------------      

   * xtb version 6.7.1 (edcfbbe) compiled by 'albert@albert-system' on 2024-07-22

   xtb is free software: you can redistribute it and/or modify it under
   the terms of the GNU Lesser General Public License as published by
   the Free Software Foundation, either version 3 of the License, or
   (at your option) any later version.
   
   xtb is distributed in the hope that it will be useful,
   but WITHOUT ANY WARRANTY; without even the implied warranty of
   MERCHANTABILITY or FITNESS FOR A PARTICULAR PURPOSE.  See the
   GNU Lesser General Public License for more details.
   
   Cite this work as:
   * C. Bannwarth, E. Caldeweyher, S. Ehlert, A. Hansen, P. Pracht,
     J. Seibert, S. Spicher, S. Grimme, WIREs Comput. Mol. Sci., 2020, 11,
     e01493. DOI: 10.1002/wcms.1493
   
   for GFN2-xTB:
   * C. Bannwarth, S. Ehlert and S. Grimme., J. Chem. Theory Comput., 2019,
     15, 1652-1671. DOI: 10.1021/acs.jctc.8b01176
   for GFN1-xTB:
   * S. Grimme, C. Bannwarth, P. Shushkov, J. Chem. Theory Comput., 2017,
     13, 1989-2009. DOI: 10.1021/acs.jctc.7b00118
   for GFN0-xTB:
   * P. Pracht, E. Caldeweyher, S. Ehlert, S. Grimme, ChemRxiv, 2019, preprint.
     DOI: 10.26434/chemrxiv.8326202.v1
   for GFN-FF:
   * S. Spicher and S. Grimme, Angew. Chem. Int. Ed., 2020, 59, 15665-15673.
     DOI: 10.1002/anie.202004239
   
   for ALPB and GBSA implicit solvation:
   * S. Ehlert, M. Stahn, S. Spicher, S. Grimme, J. Chem. Theory Comput.,
     2021, 17, 4250-4261. DOI: 10.1021/acs.jctc.1c00471
   
   for ddCOSMO and CPCM-X implicit solvation:
   * M. Stahn, S. Ehlert, S. Grimme, J. Phys. Chem. A,
     2023, XX, XXXX-XXXX. DOI: 10.1021/acs.jpca.3c04382
   
   for DFT-D4:
   * E. Caldeweyher, C. Bannwarth and S. Grimme, J. Chem. Phys., 2017,
     147, 034112. DOI: 10.1063/1.4993215
   * E. Caldeweyher, S. Ehlert, A. Hansen, H. Neugebauer, S. Spicher,
     C. Bannwarth and S. Grimme, J. Chem. Phys., 2019, 150, 154122.
     DOI: 10.1063/1.5090222
   * E. Caldeweyher, J.-M. Mewes, S. Ehlert and S. Grimme, Phys. Chem. Chem. Phys.
     2020, 22, 8499-8512. DOI: 10.1039/D0CP00502A
   
   for sTDA-xTB:
   * S. Grimme and C. Bannwarth, J. Chem. Phys., 2016, 145, 054103.
     DOI: 10.1063/1.4959605
   
   in the mass-spec context:
   * V. Asgeirsson, C. Bauer and S. Grimme, Chem. Sci., 2017, 8, 4879.
     DOI: 10.1039/c7sc00601b
   * J. Koopman and S. Grimme, ACS Omega 2019, 4, 12, 15120-15133.
     DOI: 10.1021/acsomega.9b02011
   
   for metadynamics refer to:
   * S. Grimme, J. Chem. Theory Comput., 2019, 155, 2847-2862
     DOI: 10.1021/acs.jctc.9b00143
   
   for SPH calculations refer to:
   * S. Spicher and S. Grimme, J. Chem. Theory Comput., 2021, 17, 1701-1714
     DOI: 10.1021/acs.jctc.0c01306
   
   for ONIOM refer to:
   * C. Plett, A. Katbashev, S. Ehlert, S. Grimme, M. Bursch,
     Phys. Chem. Chem. Phys., 2023, 25, 17860-17868. DOI: 10.1039/D3CP02178E
   
   for DIPRO refer to:
   * J. Kohn, N. Gildemeister, S. Grimme, D. Fazzi, A. Hansen,
     J. Chem. Phys., 2023, just accepted.
   
   for PTB refer to:
   * S. Grimme, M. Mueller, A. Hansen, J. Chem. Phys., 2023, 158, 124111.
     DOI: 10.1063/5.0137838
   
   with help from (in alphabetical order)
   P. Atkinson, C. Bannwarth, F. Bohle, G. Brandenburg, E. Caldeweyher
   M. Checinski, S. Dohm, S. Ehlert, S. Ehrlich, I. Gerasimov, C. Hölzer
   A. Katbashev, J. Kohn, J. Koopman, C. Lavigne, S. Lehtola, F. März, M. Müller,
   F. Musil, H. Neugebauer, J. Pisarek, C. Plett, P. Pracht, F. Pultar,
   J. Seibert, P. Shushkov, S. Spicher, M. Stahn, M. Steiner, T. Strunk,
   J. Stückrath, T. Rose, and J. Unsleber
   
 * started run on 2025/12/01 at 14:23:22.572     
   ID    Z sym.   atoms
    1    6 C      1-3, 6, 7, 9, 12, 13, 15, 17-19, 22, 23, 25, 27-29
    2    8 O      4, 5, 10, 14, 16, 20, 24, 26, 30
    3    7 N      8, 11, 21
    4    1 H      31-51

           -------------------------------------------------
          |                Calculation Setup                |
           -------------------------------------------------

          program call               : xtb pipeline_data/3_conformer_xyz/acrylates/rdkit/YIJYFLXQHDOQGW-UHFFFAOYSA-N_conf38.xyz --opt --gfn 2-xTB --iterations 250
          coordinate file            : pipeline_data/3_conformer_xyz/acrylates/rdkit/YIJYFLXQHDOQGW-UHFFFAOYSA-N_conf38.xyz
          omp threads                :                    24

########################################################################
[WARNING] Please study the warnings concerning your input carefully
-1- readin_getIntValue: could not parse '2-xTB'
########################################################################

           -------------------------------------------------
          |                 G F N 2 - x T B                 |
           -------------------------------------------------

        Reference                      10.1021/acs.jctc.8b01176
      * Hamiltonian:
        H0-scaling (s, p, d)           1.850000    2.230000    2.230000
        zeta-weighting                 0.500000
      * Dispersion:
        s8                             2.700000
        a1                             0.520000
        a2                             5.000000
        s9                             5.000000
      * Repulsion:
        kExp                           1.500000    1.000000
        rExp                           1.000000
      * Coulomb:
        alpha                          2.000000
        third order                    shell-resolved
        anisotropic                    true
        a3                             3.000000
        a5                             4.000000
        cn-shift                       1.200000
        cn-exp                         4.000000
        max-rad                        5.000000

q/qsh data taken from xtbrestart
CAMM data taken from xtbrestart

          ...................................................
          :                      SETUP                      :
          :.................................................:
          :  # basis functions                 141          :
          :  # atomic orbitals                 141          :
          :  # shells                           81          :
          :  # electrons                       162          :
          :  max. iterations                   250          :
          :  Hamiltonian                  GFN2-xTB          :
          :  restarted?                       true          :
          :  GBSA solvation                  false          :
          :  PC potential                    false          :
          :  electronic temp.          300.0000000     K    :
          :  accuracy                    1.0000000          :
          :  -> integral cutoff          0.2500000E+02      :
          :  -> integral neglect         0.1000000E-07      :
          :  -> SCF convergence          0.1000000E-05 Eh   :
          :  -> wf. convergence          0.1000000E-03 e    :
          :  Broyden damping             0.4000000          :
          :  net charge                          0          :
          :  unpaired electrons                  0          :
          ...................................................

 iter      E             dE          RMSdq      gap      omega  full diag
   1    -95.5475839 -0.955476E+02  0.584E+00    3.12       0.0  T
   2    -95.5793275 -0.317436E-01  0.352E+00    3.12       1.0  T
   3    -95.5603401  0.189874E-01  0.826E-01    3.34       1.0  T
   4    -95.5845714 -0.242313E-01  0.282E-01    3.36       1.0  T
   5    -95.5868320 -0.226061E-02  0.127E-01    3.34       1.0  T
   6    -95.5869627 -0.130726E-03  0.672E-02    3.33       1.0  T
   7    -95.5870285 -0.657562E-04  0.126E-02    3.33       1.1  T
   8    -95.5870294 -0.962004E-06  0.604E-03    3.33       2.3  T
   9    -95.5870297 -0.214009E-06  0.278E-03    3.33       5.0  T
  10    -95.5870298 -0.996688E-07  0.129E-03    3.33      10.8  T
  11    -95.5870298 -0.341742E-07  0.635E-04    3.33      22.0  T
  12    -95.5870298 -0.553430E-08  0.163E-04    3.33      86.0  T

   *** convergence criteria satisfied after 12 iterations ***

         #    Occupation            Energy/Eh            Energy/eV
      -------------------------------------------------------------
         1        2.0000           -0.7727899             -21.0287
       ...           ...                  ...                  ...
        75        2.0000           -0.4479860             -12.1903
        76        2.0000           -0.4466381             -12.1536
        77        2.0000           -0.4444737             -12.0947
        78        2.0000           -0.4370098             -11.8916
        79        2.0000           -0.4229360             -11.5087
        80        2.0000           -0.4222379             -11.4897
        81        2.0000           -0.4201142             -11.4319 (HOMO)
        82                         -0.2977009              -8.1009 (LUMO)
        83                         -0.2968064              -8.0765
        84                         -0.2949012              -8.0247
        85                         -0.2806643              -7.6373
        86                         -0.2758671              -7.5067
       ...                                ...                  ...
       141                          0.6145699              16.7233
      -------------------------------------------------------------
                  HL-Gap            0.1224133 Eh            3.3310 eV
             Fermi-level           -0.3589076 Eh           -9.7664 eV

 SCC (total)                   0 d,  0 h,  0 min,  0.061 sec
 SCC setup                      ...        0 min,  0.000 sec (  0.487%)
 Dispersion                     ...        0 min,  0.001 sec (  1.353%)
 classical contributions        ...        0 min,  0.000 sec (  0.111%)
 integral evaluation            ...        0 min,  0.002 sec (  4.123%)
 iterations                     ...        0 min,  0.051 sec ( 83.531%)
 molecular gradient             ...        0 min,  0.006 sec (  9.850%)
 printout                       ...        0 min,  0.000 sec (  0.497%)

         :::::::::::::::::::::::::::::::::::::::::::::::::::::
         ::                     SUMMARY                     ::
         :::::::::::::::::::::::::::::::::::::::::::::::::::::
         :: total energy             -94.606061935860 Eh    ::
         :: gradient norm              0.297896067414 Eh/a0 ::
         :: HOMO-LUMO gap              3.331034754111 eV    ::
         ::.................................................::
         :: SCC energy               -95.587445310929 Eh    ::
         :: -> isotropic ES            0.253124105500 Eh    ::
         :: -> anisotropic ES         -0.001921156165 Eh    ::
         :: -> anisotropic XC          0.014101765840 Eh    ::
         :: -> dispersion             -0.048112275081 Eh    ::
         :: repulsion energy           0.981383375069 Eh    ::
         :: add. restraining           0.000000000000 Eh    ::
         :: total charge              -0.000000000000 e     ::
         :::::::::::::::::::::::::::::::::::::::::::::::::::::

      ----------------------------------------------------------- 
     |                   =====================                   |
     |                        A N C O P T                        |
     |                   =====================                   |
     |               Approximate Normal Coordinate               |
     |                Rational Function Optimizer                |
      ----------------------------------------------------------- 
      ----------------------------------------------------------- 
     |                   =====================                   |
     |                        A N C O P T                        |
     |                   =====================                   |
     |               Approximate Normal Coordinate               |
     |                Rational Function Optimizer                |
      ----------------------------------------------------------- 

          ...................................................
          :                      SETUP                      :
          :.................................................:
          :   optimization level            normal          :
          :   max. optcycles                   200          :
          :   ANC micro-cycles                  20          :
          :   degrees of freedom               147          :
          :.................................................:
          :   RF solver                   davidson          :
          :   write xtbopt.log                true          :
          :   linear?                        false          :
          :   energy convergence         0.5000000E-05 Eh   :
          :   grad. convergence          0.1000000E-02 Eh/α :
          :   maxmium RF displ.          1.0000000          :
          :   Hlow (freq-cutoff)         0.1000000E-01      :
          :   Hmax (freq-cutoff)         5.0000000          :
          :   S6 in model hess.         20.0000000          :
          ...................................................

generating ANC from exact Hessian ...
Using Lindh-Hessian (1995)
 Shifting diagonal of input Hessian by   9.854676134950268E-003
 Lowest  eigenvalues of input Hessian
    0.000000    0.000000    0.000000    0.000000    0.000000    0.000000
    0.010000    0.010030    0.010103    0.010433    0.010518    0.010713
    0.010928    0.010984    0.011450    0.012303    0.013138    0.013488
 Highest eigenvalues
    2.156900    2.158521    2.178445    2.257173    2.570066    2.602309
 

........................................................................
.............................. CYCLE    1 ..............................
........................................................................

 iter      E             dE          RMSdq      gap      omega  full diag
   1    -95.5870298 -0.955870E+02  0.750E-05    3.33       0.0  T
   2    -95.5870298 -0.348734E-10  0.463E-05    3.33     302.6  T
   3    -95.5870298 -0.348166E-11  0.292E-05    3.33     479.3  T
     SCC iter.                  ...        0 min,  0.009 sec
     gradient                   ...        0 min,  0.007 sec
 * total energy  :   -94.6060619 Eh     change       -0.2513758E-09 Eh
   gradient norm :     0.2978964 Eh/α   predicted     0.0000000E+00 (-100.00%)
   displ. norm   :     0.3523406 α      lambda       -0.6168057E-01
   maximum displ.:     0.1146081 α      in ANC's #34, #33, #74, ...

........................................................................
.............................. CYCLE    2 ..............................
........................................................................

 iter      E             dE          RMSdq      gap      omega  full diag
   1    -95.6590893 -0.956591E+02  0.336E-01    3.47       0.0  T
   2    -95.6618478 -0.275849E-02  0.201E-01    3.52       1.0  T
   3    -95.6620638 -0.215971E-03  0.112E-01    3.52       1.0  T
   4    -95.6619878  0.760311E-04  0.590E-02    3.52       1.0  T
   5    -95.6621008 -0.112986E-03  0.149E-02    3.52       1.0  T
   6    -95.6621078 -0.708226E-05  0.505E-03    3.52       2.8  T
   7    -95.6621080 -0.174358E-06  0.130E-03    3.52      10.7  T
   8    -95.6621080 -0.837281E-08  0.667E-04    3.52      21.0  T
   9    -95.6621080 -0.164050E-08  0.278E-04    3.52      50.4  T
     SCC iter.                  ...        0 min,  0.052 sec
     gradient                   ...        0 min,  0.008 sec
 * total energy  :   -94.6514118 Eh     change       -0.4534991E-01 Eh
   gradient norm :     0.1367040 Eh/α   predicted    -0.3469024E-01 ( -23.51%)
   displ. norm   :     0.3762343 α      lambda       -0.2665876E-01
   maximum displ.:     0.1513030 α      in ANC's #34, #33, #145, ...

........................................................................
.............................. CYCLE    3 ..............................
........................................................................

 iter      E             dE          RMSdq      gap      omega  full diag
   1    -95.7058728 -0.957059E+02  0.323E-01    3.64       0.0  T
   2    -95.7081144 -0.224164E-02  0.182E-01    3.68       1.0  T
   3    -95.7082578 -0.143436E-03  0.100E-01    3.68       1.0  T
   4    -95.7082104  0.473982E-04  0.462E-02    3.68       1.0  T
   5    -95.7082856 -0.751698E-04  0.120E-02    3.68       1.2  T
   6    -95.7082897 -0.412150E-05  0.428E-03    3.68       3.3  T
   7    -95.7082899 -0.127506E-06  0.962E-04    3.68      14.6  T
   8    -95.7082899 -0.497676E-08  0.448E-04    3.68      31.2  T
     SCC iter.                  ...        0 min,  0.029 sec
     gradient                   ...        0 min,  0.006 sec
 * total energy  :   -94.6666751 Eh     change       -0.1526321E-01 Eh
   gradient norm :     0.0368348 Eh/α   predicted    -0.1521951E-01 (  -0.29%)
   displ. norm   :     0.2858814 α      lambda       -0.4127282E-02
   maximum displ.:     0.1272109 α      in ANC's #34, #33, #22, ...

........................................................................
.............................. CYCLE    4 ..............................
........................................................................

 iter      E             dE          RMSdq      gap      omega  full diag
   1    -95.7050407 -0.957050E+02  0.121E-01    3.68       0.0  T
   2    -95.7051131 -0.724973E-04  0.708E-02    3.67       1.0  T
   3    -95.7051009  0.122673E-04  0.321E-02    3.68       1.0  T
   4    -95.7051142 -0.133559E-04  0.140E-02    3.67       1.0  T
   5    -95.7051221 -0.783644E-05  0.298E-03    3.67       4.7  T
   6    -95.7051222 -0.170315E-06  0.144E-03    3.67       9.7  T
   7    -95.7051223 -0.976993E-08  0.379E-04    3.67      37.0  T
   8    -95.7051223 -0.847891E-09  0.145E-04    3.67      96.3  T
     SCC iter.                  ...        0 min,  0.027 sec
     gradient                   ...        0 min,  0.009 sec
 * total energy  :   -94.6694430 Eh     change       -0.2767897E-02 Eh
   gradient norm :     0.0155793 Eh/α   predicted    -0.2232337E-02 ( -19.35%)
   displ. norm   :     0.2797233 α      lambda       -0.1560518E-02
   maximum displ.:     0.1040690 α      in ANC's #22, #20, #13, ...

........................................................................
.............................. CYCLE    5 ..............................
........................................................................

 iter      E             dE          RMSdq      gap      omega  full diag
   1    -95.7072127 -0.957072E+02  0.836E-02    3.68       0.0  T
   2    -95.7072362 -0.235155E-04  0.491E-02    3.67       1.0  T
   3    -95.7072314  0.485361E-05  0.173E-02    3.67       1.0  T
   4    -95.7072356 -0.424193E-05  0.836E-03    3.67       1.7  T
   5    -95.7072384 -0.282196E-05  0.163E-03    3.67       8.6  T
   6    -95.7072385 -0.252842E-07  0.830E-04    3.67      16.9  T
   7    -95.7072385 -0.481516E-08  0.205E-04    3.67      68.2  T
     SCC iter.                  ...        0 min,  0.024 sec
     gradient                   ...        0 min,  0.009 sec
 * total energy  :   -94.6704401 Eh     change       -0.9970967E-03 Eh
   gradient norm :     0.0080262 Eh/α   predicted    -0.8413773E-03 ( -15.62%)
   displ. norm   :     0.2314601 α      lambda       -0.6543682E-03
   maximum displ.:     0.0813037 α      in ANC's #22, #13, #9, ...

........................................................................
.............................. CYCLE    6 ..............................
........................................................................

 iter      E             dE          RMSdq      gap      omega  full diag
   1    -95.7110914 -0.957111E+02  0.588E-02    3.68       0.0  T
   2    -95.7110990 -0.762293E-05  0.351E-02    3.67       1.0  T
   3    -95.7110973  0.168140E-05  0.103E-02    3.68       1.4  T
   4    -95.7110998 -0.245963E-05  0.315E-03    3.67       4.4  T
   5    -95.7111001 -0.310555E-06  0.134E-03    3.67      10.5  T
   6    -95.7111001 -0.316871E-07  0.662E-04    3.67      21.2  T
   7    -95.7111001 -0.428118E-08  0.150E-04    3.67      93.4  T
     SCC iter.                  ...        0 min,  0.025 sec
     gradient                   ...        0 min,  0.009 sec
 * total energy  :   -94.6708157 Eh     change       -0.3756090E-03 Eh
   gradient norm :     0.0076839 Eh/α   predicted    -0.3447148E-03 (  -8.23%)
   displ. norm   :     0.1960354 α      lambda       -0.3621187E-03
   maximum displ.:     0.0807632 α      in ANC's #9, #13, #22, ...

........................................................................
.............................. CYCLE    7 ..............................
........................................................................

 iter      E             dE          RMSdq      gap      omega  full diag
   1    -95.7138124 -0.957138E+02  0.576E-02    3.68       0.0  T
   2    -95.7138166 -0.424108E-05  0.344E-02    3.68       1.0  T
   3    -95.7138154  0.119788E-05  0.771E-03    3.68       1.8  T
   4    -95.7138172 -0.179551E-05  0.190E-03    3.68       7.4  T
   5    -95.7138173 -0.739837E-07  0.103E-03    3.68      13.6  T
   6    -95.7138173 -0.110056E-07  0.584E-04    3.68      24.0  T
   7    -95.7138173 -0.600379E-08  0.105E-04    3.68     133.3  T
     SCC iter.                  ...        0 min,  0.025 sec
     gradient                   ...        0 min,  0.009 sec
 * total energy  :   -94.6710429 Eh     change       -0.2272437E-03 Eh
   gradient norm :     0.0070934 Eh/α   predicted    -0.1880313E-03 ( -17.26%)
   displ. norm   :     0.1803979 α      lambda       -0.2342750E-03
   maximum displ.:     0.0871444 α      in ANC's #9, #6, #13, ...

........................................................................
.............................. CYCLE    8 ..............................
........................................................................

 iter      E             dE          RMSdq      gap      omega  full diag
   1    -95.7151191 -0.957151E+02  0.494E-02    3.68       0.0  T
   2    -95.7151216 -0.248766E-05  0.291E-02    3.69       1.0  T
   3    -95.7151214  0.154844E-06  0.452E-03    3.68       3.1  T
   4    -95.7151218 -0.396184E-06  0.166E-03    3.68       8.4  T
   5    -95.7151219 -0.632469E-07  0.874E-04    3.69      16.0  T
   6    -95.7151219 -0.778348E-08  0.453E-04    3.68      30.9  T
     SCC iter.                  ...        0 min,  0.021 sec
     gradient                   ...        0 min,  0.009 sec
 * total energy  :   -94.6712110 Eh     change       -0.1680797E-03 Eh
   gradient norm :     0.0050695 Eh/α   predicted    -0.1209527E-03 ( -28.04%)
   displ. norm   :     0.2404189 α      lambda       -0.2323149E-03
   maximum displ.:     0.1245165 α      in ANC's #9, #6, #7, ...

........................................................................
.............................. CYCLE    9 ..............................
........................................................................

 iter      E             dE          RMSdq      gap      omega  full diag
   1    -95.7149243 -0.957149E+02  0.614E-02    3.69       0.0  T
   2    -95.7149277 -0.333032E-05  0.361E-02    3.70       1.0  T
   3    -95.7149275  0.173843E-06  0.527E-03    3.70       2.7  T
   4    -95.7149280 -0.541607E-06  0.193E-03    3.70       7.3  T
   5    -95.7149281 -0.704289E-07  0.107E-03    3.70      13.0  T
   6    -95.7149281 -0.139030E-07  0.537E-04    3.70      26.1  T
   7    -95.7149281 -0.522724E-08  0.130E-04    3.70     107.8  T
     SCC iter.                  ...        0 min,  0.028 sec
     gradient                   ...        0 min,  0.014 sec
 * total energy  :   -94.6713504 Eh     change       -0.1393794E-03 Eh
   gradient norm :     0.0044241 Eh/α   predicted    -0.1228736E-03 ( -11.84%)
   displ. norm   :     0.1594405 α      lambda       -0.1071822E-03
   maximum displ.:     0.0840454 α      in ANC's #9, #6, #7, ...

........................................................................
.............................. CYCLE   10 ..............................
........................................................................

 iter      E             dE          RMSdq      gap      omega  full diag
   1    -95.7137294 -0.957137E+02  0.412E-02    3.70       0.0  T
   2    -95.7137302 -0.815037E-06  0.244E-02    3.70       1.0  T
   3    -95.7137295  0.720185E-06  0.488E-03    3.70       2.9  T
   4    -95.7137304 -0.925663E-06  0.157E-03    3.70       8.9  T
   5    -95.7137305 -0.654480E-07  0.757E-04    3.70      18.5  T
   6    -95.7137305 -0.508621E-08  0.266E-04    3.70      52.6  T
     SCC iter.                  ...        0 min,  0.021 sec
     gradient                   ...        0 min,  0.008 sec
 * total energy  :   -94.6714203 Eh     change       -0.6997827E-04 Eh
   gradient norm :     0.0038288 Eh/α   predicted    -0.5495487E-04 ( -21.47%)
   displ. norm   :     0.1366595 α      lambda       -0.7260116E-04
   maximum displ.:     0.0674637 α      in ANC's #9, #6, #7, ...

........................................................................
.............................. CYCLE   11 ..............................
........................................................................

 iter      E             dE          RMSdq      gap      omega  full diag
   1    -95.7134891 -0.957135E+02  0.299E-02    3.71       0.0  T
   2    -95.7134899 -0.805046E-06  0.177E-02    3.71       1.0  T
   3    -95.7134898  0.141679E-06  0.291E-03    3.71       4.8  T
   4    -95.7134900 -0.235514E-06  0.102E-03    3.71      13.7  T
   5    -95.7134901 -0.259025E-07  0.561E-04    3.71      25.0  T
   6    -95.7134901 -0.456630E-08  0.265E-04    3.71      52.8  T
     SCC iter.                  ...        0 min,  0.022 sec
     gradient                   ...        0 min,  0.008 sec
 * total energy  :   -94.6714736 Eh     change       -0.5324976E-04 Eh
   gradient norm :     0.0029044 Eh/α   predicted    -0.3698123E-04 ( -30.55%)
   displ. norm   :     0.1756599 α      lambda       -0.7068654E-04
   maximum displ.:     0.0816578 α      in ANC's #9, #6, #3, ...

........................................................................
.............................. CYCLE   12 ..............................
........................................................................

 iter      E             dE          RMSdq      gap      omega  full diag
   1    -95.7132823 -0.957133E+02  0.375E-02    3.71       0.0  T
   2    -95.7132834 -0.103128E-05  0.221E-02    3.71       1.0  T
   3    -95.7132833  0.112074E-06  0.306E-03    3.71       4.6  T
   4    -95.7132835 -0.184022E-06  0.146E-03    3.71       9.6  T
   5    -95.7132835 -0.675059E-07  0.586E-04    3.71      23.9  T
   6    -95.7132835 -0.291810E-08  0.273E-04    3.71      51.3  T
     SCC iter.                  ...        0 min,  0.021 sec
     gradient                   ...        0 min,  0.008 sec
 * total energy  :   -94.6715222 Eh     change       -0.4864262E-04 Eh
   gradient norm :     0.0025604 Eh/α   predicted    -0.3643502E-04 ( -25.10%)
   displ. norm   :     0.1694972 α      lambda       -0.5360338E-04
   maximum displ.:     0.0735636 α      in ANC's #9, #3, #6, ...

........................................................................
.............................. CYCLE   13 ..............................
........................................................................

 iter      E             dE          RMSdq      gap      omega  full diag
   1    -95.7135687 -0.957136E+02  0.341E-02    3.72       0.0  T
   2    -95.7135693 -0.548021E-06  0.201E-02    3.71       1.0  T
   3    -95.7135690  0.265521E-06  0.328E-03    3.71       4.3  T
   4    -95.7135693 -0.334230E-06  0.126E-03    3.71      11.1  T
   5    -95.7135694 -0.526539E-07  0.518E-04    3.71      27.0  T
   6    -95.7135694 -0.259806E-08  0.232E-04    3.71      60.5  T
     SCC iter.                  ...        0 min,  0.034 sec
     gradient                   ...        0 min,  0.008 sec
 * total energy  :   -94.6715600 Eh     change       -0.3772389E-04 Eh
   gradient norm :     0.0029742 Eh/α   predicted    -0.2757266E-04 ( -26.91%)
   displ. norm   :     0.1762379 α      lambda       -0.4744630E-04
   maximum displ.:     0.0798370 α      in ANC's #3, #6, #9, ...

........................................................................
.............................. CYCLE   14 ..............................
........................................................................

 iter      E             dE          RMSdq      gap      omega  full diag
   1    -95.7139910 -0.957140E+02  0.356E-02    3.72       0.0  T
   2    -95.7139914 -0.368678E-06  0.210E-02    3.72       1.0  T
   3    -95.7139911  0.284006E-06  0.316E-03    3.72       4.4  T
   4    -95.7139914 -0.373056E-06  0.106E-03    3.72      13.2  T
   5    -95.7139915 -0.298918E-07  0.506E-04    3.72      27.7  T
   6    -95.7139915 -0.260148E-08  0.206E-04    3.72      68.1  T
     SCC iter.                  ...        0 min,  0.028 sec
     gradient                   ...        0 min,  0.008 sec
 * total energy  :   -94.6715952 Eh     change       -0.3526392E-04 Eh
   gradient norm :     0.0028779 Eh/α   predicted    -0.2446175E-04 ( -30.63%)
   displ. norm   :     0.1902268 α      lambda       -0.4503669E-04
   maximum displ.:     0.0909976 α      in ANC's #3, #7, #6, ...

........................................................................
.............................. CYCLE   15 ..............................
........................................................................

 iter      E             dE          RMSdq      gap      omega  full diag
   1    -95.7142309 -0.957142E+02  0.403E-02    3.72       0.0  T
   2    -95.7142314 -0.503069E-06  0.237E-02    3.72       1.0  T
   3    -95.7142312  0.236841E-06  0.302E-03    3.72       4.6  T
   4    -95.7142315 -0.318883E-06  0.130E-03    3.72      10.8  T
   5    -95.7142316 -0.504145E-07  0.528E-04    3.72      26.5  T
   6    -95.7142316 -0.194743E-08  0.244E-04    3.72      57.4  T
     SCC iter.                  ...        0 min,  0.024 sec
     gradient                   ...        0 min,  0.007 sec
 * total energy  :   -94.6716277 Eh     change       -0.3248489E-04 Eh
   gradient norm :     0.0025274 Eh/α   predicted    -0.2333752E-04 ( -28.16%)
   displ. norm   :     0.1722368 α      lambda       -0.3650960E-04
   maximum displ.:     0.0881547 α      in ANC's #3, #7, #6, ...

........................................................................
.............................. CYCLE   16 ..............................
........................................................................

 iter      E             dE          RMSdq      gap      omega  full diag
   1    -95.7145948 -0.957146E+02  0.386E-02    3.72       0.0  T
   2    -95.7145953 -0.497941E-06  0.227E-02    3.72       1.0  T
   3    -95.7145952  0.182393E-07  0.194E-03    3.72       7.2  T
   4    -95.7145953 -0.850643E-07  0.113E-03    3.72      12.4  T
   5    -95.7145954 -0.364428E-07  0.497E-04    3.72      28.2  T
   6    -95.7145954 -0.181353E-08  0.217E-04    3.72      64.7  T
     SCC iter.                  ...        0 min,  0.022 sec
     gradient                   ...        0 min,  0.008 sec
 * total energy  :   -94.6716531 Eh     change       -0.2540458E-04 Eh
   gradient norm :     0.0023587 Eh/α   predicted    -0.1879830E-04 ( -26.00%)
   displ. norm   :     0.1653345 α      lambda       -0.3063368E-04
   maximum displ.:     0.0886154 α      in ANC's #3, #7, #6, ...

........................................................................
.............................. CYCLE   17 ..............................
........................................................................

 iter      E             dE          RMSdq      gap      omega  full diag
   1    -95.7142325 -0.957142E+02  0.394E-02    3.72       0.0  T
   2    -95.7142328 -0.347125E-06  0.232E-02    3.72       1.0  T
   3    -95.7142326  0.258849E-06  0.295E-03    3.72       4.7  T
   4    -95.7142329 -0.339479E-06  0.118E-03    3.72      11.8  T
   5    -95.7142329 -0.389353E-07  0.476E-04    3.72      29.4  T
   6    -95.7142329 -0.674262E-09  0.164E-04    3.72      85.5  T
     SCC iter.                  ...        0 min,  0.021 sec
     gradient                   ...        0 min,  0.007 sec
 * total energy  :   -94.6716745 Eh     change       -0.2138137E-04 Eh
   gradient norm :     0.0020453 Eh/α   predicted    -0.1573686E-04 ( -26.40%)
   displ. norm   :     0.1409094 α      lambda       -0.2887279E-04
   maximum displ.:     0.0803143 α      in ANC's #3, #6, #7, ...

........................................................................
.............................. CYCLE   18 ..............................
........................................................................

 iter      E             dE          RMSdq      gap      omega  full diag
   1    -95.7144299 -0.957144E+02  0.368E-02    3.72       0.0  T
   2    -95.7144302 -0.260174E-06  0.217E-02    3.72       1.0  T
   3    -95.7144302 -0.355453E-07  0.147E-03    3.72       9.5  T
   4    -95.7144303 -0.395923E-07  0.935E-04    3.72      15.0  T
   5    -95.7144303 -0.183629E-07  0.462E-04    3.72      30.3  T
     SCC iter.                  ...        0 min,  0.020 sec
     gradient                   ...        0 min,  0.008 sec
 * total energy  :   -94.6716952 Eh     change       -0.2069557E-04 Eh
   gradient norm :     0.0022164 Eh/α   predicted    -0.1472500E-04 ( -28.85%)
   displ. norm   :     0.1561159 α      lambda       -0.2965384E-04
   maximum displ.:     0.0908010 α      in ANC's #3, #6, #4, ...

........................................................................
.............................. CYCLE   19 ..............................
........................................................................

 iter      E             dE          RMSdq      gap      omega  full diag
   1    -95.7139515 -0.957140E+02  0.404E-02    3.72       0.0  T
   2    -95.7139518 -0.320559E-06  0.238E-02    3.72       1.0  T
   3    -95.7139517  0.151810E-06  0.260E-03    3.72       5.4  T
   4    -95.7139519 -0.249799E-06  0.115E-03    3.72      12.2  T
   5    -95.7139520 -0.303369E-07  0.526E-04    3.72      26.6  T
   6    -95.7139520 -0.881911E-09  0.148E-04    3.72      94.7  T
     SCC iter.                  ...        0 min,  0.021 sec
     gradient                   ...        0 min,  0.007 sec
 * total energy  :   -94.6717161 Eh     change       -0.2094102E-04 Eh
   gradient norm :     0.0021414 Eh/α   predicted    -0.1519263E-04 ( -27.45%)
   displ. norm   :     0.1338380 α      lambda       -0.2619797E-04
   maximum displ.:     0.0776418 α      in ANC's #3, #17, #13, ...

........................................................................
.............................. CYCLE   20 ..............................
........................................................................

 iter      E             dE          RMSdq      gap      omega  full diag
   1    -95.7139831 -0.957140E+02  0.357E-02    3.72       0.0  T
   2    -95.7139834 -0.273194E-06  0.210E-02    3.72       1.0  T
   3    -95.7139835 -0.656632E-07  0.140E-03    3.72      10.0  T
   4    -95.7139835 -0.291269E-07  0.864E-04    3.72      16.2  T
   5    -95.7139835 -0.772857E-08  0.525E-04    3.72      26.7  T
     SCC iter.                  ...        0 min,  0.018 sec
     gradient                   ...        0 min,  0.007 sec
 * total energy  :   -94.6717347 Eh     change       -0.1854897E-04 Eh
   gradient norm :     0.0020283 Eh/α   predicted    -0.1333795E-04 ( -28.09%)
   displ. norm   :     0.1045151 α      lambda       -0.1913617E-04
   maximum displ.:     0.0613800 α      in ANC's #3, #13, #17, ...
 * RMSD in coord.:     0.3905237 α      energy gain  -0.6567274E-01 Eh

generating ANC from exact Hessian ...
Using Lindh-Hessian (1995)
 Shifting diagonal of input Hessian by   9.856250289545355E-003
 Lowest  eigenvalues of input Hessian
    0.000000    0.000000    0.000000    0.000000    0.000000    0.000000
    0.010000    0.010036    0.010102    0.010492    0.010546    0.010724
    0.011019    0.011057    0.011632    0.012215    0.013178    0.013476
 Highest eigenvalues
    2.386623    2.390589    2.396478    2.397709    2.581367    2.585882
 

........................................................................
.............................. CYCLE   21 ..............................
........................................................................

 iter      E             dE          RMSdq      gap      omega  full diag
   1    -95.7140017 -0.957140E+02  0.256E-02    3.72       0.0  T
   2    -95.7140019 -0.188752E-06  0.150E-02    3.72       1.0  T
   3    -95.7140019  0.924771E-08  0.158E-03    3.72       8.8  T
   4    -95.7140019 -0.686917E-07  0.765E-04    3.72      18.3  T
   5    -95.7140019 -0.102348E-07  0.456E-04    3.72      30.7  T
     SCC iter.                  ...        0 min,  0.018 sec
     gradient                   ...        0 min,  0.007 sec
 * total energy  :   -94.6717487 Eh     change       -0.1401168E-04 Eh
   gradient norm :     0.0015380 Eh/α   predicted     0.0000000E+00 (-100.00%)
   displ. norm   :     0.0248187 α      lambda       -0.6342766E-05
   maximum displ.:     0.0127660 α      in ANC's #3, #9, #21, ...

........................................................................
.............................. CYCLE   22 ..............................
........................................................................

 iter      E             dE          RMSdq      gap      omega  full diag
   1    -95.7143803 -0.957144E+02  0.797E-03    3.72       0.0  T
   2    -95.7143804 -0.114821E-06  0.473E-03    3.72       3.0  T
   3    -95.7143804  0.317815E-07  0.123E-03    3.72      11.4  T
   4    -95.7143804 -0.363212E-07  0.490E-04    3.72      28.6  T
   5    -95.7143804 -0.972220E-08  0.153E-04    3.72      91.8  T
     SCC iter.                  ...        0 min,  0.019 sec
     gradient                   ...        0 min,  0.007 sec
 * total energy  :   -94.6717570 Eh     change       -0.8358447E-05 Eh
   gradient norm :     0.0006278 Eh/α   predicted    -0.3656235E-05 ( -56.26%)
   displ. norm   :     0.0700293 α      lambda       -0.1251993E-04
   maximum displ.:     0.0371052 α      in ANC's #3, #9, #21, ...

........................................................................
.............................. CYCLE   23 ..............................
........................................................................

 iter      E             dE          RMSdq      gap      omega  full diag
   1    -95.7146508 -0.957147E+02  0.221E-02    3.72       0.0  T
   2    -95.7146511 -0.346167E-06  0.130E-02    3.72       1.1  T
   3    -95.7146511  0.435920E-07  0.174E-03    3.72       8.1  T
   4    -95.7146512 -0.845507E-07  0.720E-04    3.72      19.4  T
   5    -95.7146512 -0.153061E-07  0.365E-04    3.72      38.4  T
     SCC iter.                  ...        0 min,  0.018 sec
     gradient                   ...        0 min,  0.007 sec
 * total energy  :   -94.6717675 Eh     change       -0.1049434E-04 Eh
   gradient norm :     0.0014594 Eh/α   predicted    -0.6274086E-05 ( -40.21%)
   displ. norm   :     0.0706068 α      lambda       -0.9412765E-05
   maximum displ.:     0.0385069 α      in ANC's #3, #9, #21, ...

........................................................................
.............................. CYCLE   24 ..............................
........................................................................

 iter      E             dE          RMSdq      gap      omega  full diag
   1    -95.7144889 -0.957145E+02  0.231E-02    3.72       0.0  T
   2    -95.7144890 -0.103208E-06  0.136E-02    3.72       1.0  T
   3    -95.7144891 -0.352053E-07  0.761E-04    3.72      18.4  T
   4    -95.7144891 -0.858994E-08  0.448E-04    3.72      31.3  T
     SCC iter.                  ...        0 min,  0.014 sec
     gradient                   ...        0 min,  0.007 sec
 * total energy  :   -94.6717747 Eh     change       -0.7178012E-05 Eh
   gradient norm :     0.0017399 Eh/α   predicted    -0.4718622E-05 ( -34.26%)
   displ. norm   :     0.0571717 α      lambda       -0.7420608E-05
   maximum displ.:     0.0319815 α      in ANC's #3, #9, #21, ...

........................................................................
.............................. CYCLE   25 ..............................
........................................................................

 iter      E             dE          RMSdq      gap      omega  full diag
   1    -95.7144654 -0.957145E+02  0.178E-02    3.72       0.0  T
   2    -95.7144655 -0.710306E-07  0.105E-02    3.72       1.3  T
   3    -95.7144655 -0.610291E-08  0.824E-04    3.72      17.0  T
   4    -95.7144655 -0.167300E-07  0.485E-04    3.72      28.9  T
     SCC iter.                  ...        0 min,  0.014 sec
     gradient                   ...        0 min,  0.005 sec
 * total energy  :   -94.6717832 Eh     change       -0.8484756E-05 Eh
   gradient norm :     0.0011317 Eh/α   predicted    -0.3716583E-05 ( -56.20%)
   displ. norm   :     0.1096874 α      lambda       -0.1251511E-04
   maximum displ.:     0.0619069 α      in ANC's #3, #9, #21, ...

........................................................................
.............................. CYCLE   26 ..............................
........................................................................

 iter      E             dE          RMSdq      gap      omega  full diag
   1    -95.7144241 -0.957144E+02  0.338E-02    3.72       0.0  T
   2    -95.7144244 -0.293134E-06  0.199E-02    3.72       1.0  T
   3    -95.7144243  0.300655E-07  0.186E-03    3.72       7.5  T
   4    -95.7144244 -0.101686E-06  0.991E-04    3.72      14.1  T
   5    -95.7144245 -0.260279E-07  0.472E-04    3.72      29.6  T
     SCC iter.                  ...        0 min,  0.082 sec
     gradient                   ...        0 min,  0.016 sec
 * total energy  :   -94.6717943 Eh     change       -0.1108595E-04 Eh
   gradient norm :     0.0009666 Eh/α   predicted    -0.6295244E-05 ( -43.21%)
   displ. norm   :     0.0859472 α      lambda       -0.6786436E-05
   maximum displ.:     0.0494856 α      in ANC's #3, #9, #5, ...

........................................................................
.............................. CYCLE   27 ..............................
........................................................................

 iter      E             dE          RMSdq      gap      omega  full diag
   1    -95.7142532 -0.957143E+02  0.259E-02    3.72       0.0  T
   2    -95.7142534 -0.106345E-06  0.153E-02    3.72       1.0  T
   3    -95.7142533  0.215467E-07  0.137E-03    3.72      10.2  T
   4    -95.7142534 -0.630763E-07  0.641E-04    3.72      21.8  T
   5    -95.7142534 -0.805932E-08  0.313E-04    3.72      44.8  T
     SCC iter.                  ...        0 min,  0.037 sec
     gradient                   ...        0 min,  0.008 sec
 * total energy  :   -94.6718009 Eh     change       -0.6565818E-05 Eh
   gradient norm :     0.0012483 Eh/α   predicted    -0.3405690E-05 ( -48.13%)
   displ. norm   :     0.1019452 α      lambda       -0.7821050E-05
   maximum displ.:     0.0586174 α      in ANC's #3, #9, #5, ...

........................................................................
.............................. CYCLE   28 ..............................
........................................................................

 iter      E             dE          RMSdq      gap      omega  full diag
   1    -95.7141534 -0.957142E+02  0.303E-02    3.72       0.0  T
   2    -95.7141536 -0.154973E-06  0.178E-02    3.72       1.0  T
   3    -95.7141536  0.354567E-07  0.162E-03    3.72       8.6  T
   4    -95.7141536 -0.848562E-07  0.763E-04    3.72      18.4  T
   5    -95.7141537 -0.132091E-07  0.362E-04    3.72      38.7  T
     SCC iter.                  ...        0 min,  0.016 sec
     gradient                   ...        0 min,  0.007 sec
 * total energy  :   -94.6718093 Eh     change       -0.8436809E-05 Eh
   gradient norm :     0.0013577 Eh/α   predicted    -0.3930594E-05 ( -53.41%)
   displ. norm   :     0.1327510 α      lambda       -0.1006751E-04
   maximum displ.:     0.0771982 α      in ANC's #3, #9, #5, ...

........................................................................
.............................. CYCLE   29 ..............................
........................................................................

 iter      E             dE          RMSdq      gap      omega  full diag
   1    -95.7142898 -0.957143E+02  0.395E-02    3.72       0.0  T
   2    -95.7142901 -0.296094E-06  0.232E-02    3.71       1.0  T
   3    -95.7142901 -0.439408E-08  0.175E-03    3.72       8.0  T
   4    -95.7142902 -0.806910E-07  0.868E-04    3.71      16.1  T
   5    -95.7142902 -0.116141E-07  0.509E-04    3.71      27.5  T
     SCC iter.                  ...        0 min,  0.017 sec
     gradient                   ...        0 min,  0.013 sec
 * total energy  :   -94.6718202 Eh     change       -0.1089657E-04 Eh
   gradient norm :     0.0011304 Eh/α   predicted    -0.5073498E-05 ( -53.44%)
   displ. norm   :     0.1504023 α      lambda       -0.9882073E-05
   maximum displ.:     0.0880358 α      in ANC's #3, #9, #5, ...

........................................................................
.............................. CYCLE   30 ..............................
........................................................................

 iter      E             dE          RMSdq      gap      omega  full diag
   1    -95.7143566 -0.957144E+02  0.446E-02    3.72       0.0  T
   2    -95.7143570 -0.365711E-06  0.262E-02    3.71       1.0  T
   3    -95.7143570 -0.307430E-07  0.176E-03    3.72       7.9  T
   4    -95.7143571 -0.839296E-07  0.854E-04    3.71      16.4  T
   5    -95.7143571 -0.519366E-08  0.563E-04    3.71      24.9  T
     SCC iter.                  ...        0 min,  0.029 sec
     gradient                   ...        0 min,  0.008 sec
 * total energy  :   -94.6718306 Eh     change       -0.1036428E-04 Eh
   gradient norm :     0.0012021 Eh/α   predicted    -0.4994001E-05 ( -51.82%)
   displ. norm   :     0.1445559 α      lambda       -0.9101939E-05
   maximum displ.:     0.0844819 α      in ANC's #3, #5, #9, ...

........................................................................
.............................. CYCLE   31 ..............................
........................................................................

 iter      E             dE          RMSdq      gap      omega  full diag
   1    -95.7142226 -0.957142E+02  0.437E-02    3.72       0.0  T
   2    -95.7142228 -0.253156E-06  0.257E-02    3.71       1.0  T
   3    -95.7142229 -0.554995E-07  0.146E-03    3.72       9.6  T
   4    -95.7142229 -0.496860E-07  0.770E-04    3.72      18.2  T
   5    -95.7142230 -0.659469E-09  0.482E-04    3.71      29.1  T
     SCC iter.                  ...        0 min,  0.022 sec
     gradient                   ...        0 min,  0.006 sec
 * total energy  :   -94.6718416 Eh     change       -0.1101505E-04 Eh
   gradient norm :     0.0011652 Eh/α   predicted    -0.4594719E-05 ( -58.29%)
   displ. norm   :     0.1641957 α      lambda       -0.1101700E-04
   maximum displ.:     0.0952257 α      in ANC's #3, #5, #9, ...

........................................................................
.............................. CYCLE   32 ..............................
........................................................................

 iter      E             dE          RMSdq      gap      omega  full diag
   1    -95.7142634 -0.957143E+02  0.485E-02    3.72       0.0  T
   2    -95.7142636 -0.279019E-06  0.285E-02    3.72       1.0  T
   3    -95.7142637 -0.325379E-07  0.181E-03    3.72       7.7  T
   4    -95.7142638 -0.897471E-07  0.940E-04    3.72      14.9  T
   5    -95.7142638 -0.808886E-08  0.590E-04    3.72      23.7  T
     SCC iter.                  ...        0 min,  0.015 sec
     gradient                   ...        0 min,  0.007 sec
 * total energy  :   -94.6718551 Eh     change       -0.1351514E-04 Eh
   gradient norm :     0.0007977 Eh/α   predicted    -0.5575355E-05 ( -58.75%)
   displ. norm   :     0.1954494 α      lambda       -0.1158299E-04
   maximum displ.:     0.1126716 α      in ANC's #3, #5, #9, ...

........................................................................
.............................. CYCLE   33 ..............................
........................................................................

 iter      E             dE          RMSdq      gap      omega  full diag
   1    -95.7138064 -0.957138E+02  0.577E-02    3.72       0.0  T
   2    -95.7138067 -0.352570E-06  0.340E-02    3.72       1.0  T
   3    -95.7138068 -0.938535E-07  0.181E-03    3.72       7.7  T
   4    -95.7138069 -0.577572E-07  0.115E-03    3.72      12.2  T
   5    -95.7138069 -0.201609E-07  0.538E-04    3.72      26.0  T
   6    -95.7138069 -0.310474E-08  0.148E-04    3.72      94.4  T
     SCC iter.                  ...        0 min,  0.018 sec
     gradient                   ...        0 min,  0.007 sec
 * total energy  :   -94.6718691 Eh     change       -0.1400111E-04 Eh
   gradient norm :     0.0011201 Eh/α   predicted    -0.5892142E-05 ( -57.92%)
   displ. norm   :     0.1998532 α      lambda       -0.1312039E-04
   maximum displ.:     0.1187362 α      in ANC's #5, #3, #2, ...

........................................................................
.............................. CYCLE   34 ..............................
........................................................................

 iter      E             dE          RMSdq      gap      omega  full diag
   1    -95.7142051 -0.957142E+02  0.553E-02    3.72       0.0  T
   2    -95.7142055 -0.400064E-06  0.326E-02    3.72       1.0  T
   3    -95.7142055  0.620290E-09  0.225E-03    3.72       6.2  T
   4    -95.7142057 -0.141007E-06  0.119E-03    3.72      11.8  T
   5    -95.7142057 -0.276001E-07  0.594E-04    3.72      23.6  T
   6    -95.7142057 -0.262234E-08  0.183E-04    3.72      76.4  T
     SCC iter.                  ...        0 min,  0.018 sec
     gradient                   ...        0 min,  0.006 sec
 * total energy  :   -94.6718830 Eh     change       -0.1396381E-04 Eh
   gradient norm :     0.0013651 Eh/α   predicted    -0.6680079E-05 ( -52.16%)
   displ. norm   :     0.3034334 α      lambda       -0.1626379E-04
   maximum displ.:     0.1825862 α      in ANC's #5, #3, #2, ...

........................................................................
.............................. CYCLE   35 ..............................
........................................................................

 iter      E             dE          RMSdq      gap      omega  full diag
   1    -95.7131572 -0.957132E+02  0.857E-02    3.71       0.0  T
   2    -95.7131581 -0.868643E-06  0.506E-02    3.71       1.0  T
   3    -95.7131573  0.791022E-06  0.535E-03    3.71       2.6  T
   4    -95.7131585 -0.120486E-05  0.184E-03    3.71       7.6  T
   5    -95.7131585 -0.453170E-07  0.901E-04    3.71      15.5  T
   6    -95.7131585 -0.371408E-08  0.268E-04    3.71      52.2  T
     SCC iter.                  ...        0 min,  0.017 sec
     gradient                   ...        0 min,  0.006 sec
 * total energy  :   -94.6718950 Eh     change       -0.1196374E-04 Eh
   gradient norm :     0.0027558 Eh/α   predicted    -0.8466467E-05 ( -29.23%)
   displ. norm   :     0.0688325 α      lambda       -0.1340039E-04
   maximum displ.:     0.0450476 α      in ANC's #5, #3, #10, ...

........................................................................
.............................. CYCLE   36 ..............................
........................................................................

 iter      E             dE          RMSdq      gap      omega  full diag
   1    -95.7139117 -0.957139E+02  0.166E-02    3.71       0.0  T
   2    -95.7139118 -0.111912E-06  0.977E-03    3.71       1.4  T
   3    -95.7139118  0.370669E-07  0.128E-03    3.71      10.9  T
   4    -95.7139118 -0.600568E-07  0.388E-04    3.71      36.1  T
   5    -95.7139118 -0.203687E-08  0.255E-04    3.71      54.9  T
     SCC iter.                  ...        0 min,  0.014 sec
     gradient                   ...        0 min,  0.006 sec
 * total energy  :   -94.6719057 Eh     change       -0.1070372E-04 Eh
   gradient norm :     0.0015317 Eh/α   predicted    -0.6733913E-05 ( -37.09%)
   displ. norm   :     0.3581341 α      lambda       -0.2570891E-04
   maximum displ.:     0.2355448 α      in ANC's #5, #3, #2, ...

........................................................................
.............................. CYCLE   37 ..............................
........................................................................

 iter      E             dE          RMSdq      gap      omega  full diag
   1    -95.7141050 -0.957141E+02  0.932E-02    3.72       0.0  T
   2    -95.7141066 -0.154832E-05  0.548E-02    3.72       1.0  T
   3    -95.7141065  0.370598E-07  0.380E-03    3.72       3.7  T
   4    -95.7141069 -0.321160E-06  0.234E-03    3.72       6.0  T
   5    -95.7141070 -0.158123E-06  0.960E-04    3.72      14.6  T
   6    -95.7141070 -0.437576E-08  0.340E-04    3.72      41.1  T
     SCC iter.                  ...        0 min,  0.017 sec
     gradient                   ...        0 min,  0.007 sec
 * total energy  :   -94.6719242 Eh     change       -0.1851829E-04 Eh
   gradient norm :     0.0020252 Eh/α   predicted    -0.1358852E-04 ( -26.62%)
   displ. norm   :     0.0826715 α      lambda       -0.1310303E-04
   maximum displ.:     0.0569224 α      in ANC's #5, #3, #2, ...

........................................................................
.............................. CYCLE   38 ..............................
........................................................................

 iter      E             dE          RMSdq      gap      omega  full diag
   1    -95.7148096 -0.957148E+02  0.209E-02    3.72       0.0  T
   2    -95.7148098 -0.163823E-06  0.123E-02    3.72       1.1  T
   3    -95.7148097  0.330267E-07  0.142E-03    3.72       9.9  T
   4    -95.7148098 -0.671493E-07  0.413E-04    3.72      33.9  T
   5    -95.7148098 -0.150354E-08  0.293E-04    3.72      47.7  T
     SCC iter.                  ...        0 min,  0.015 sec
     gradient                   ...        0 min,  0.006 sec
 * total energy  :   -94.6719334 Eh     change       -0.9212904E-05 Eh
   gradient norm :     0.0011542 Eh/α   predicted    -0.6598554E-05 ( -28.38%)
   displ. norm   :     0.3081035 α      lambda       -0.1469601E-04
   maximum displ.:     0.2104088 α      in ANC's #5, #3, #2, ...

........................................................................
.............................. CYCLE   39 ..............................
........................................................................

 iter      E             dE          RMSdq      gap      omega  full diag
   1    -95.7137049 -0.957137E+02  0.832E-02    3.71       0.0  T
   2    -95.7137061 -0.124028E-05  0.490E-02    3.71       1.0  T
   3    -95.7137052  0.899396E-06  0.560E-03    3.71       2.5  T
   4    -95.7137064 -0.119434E-05  0.219E-03    3.71       6.4  T
   5    -95.7137065 -0.129314E-06  0.906E-04    3.71      15.5  T
   6    -95.7137065 -0.186877E-08  0.250E-04    3.71      56.1  T
     SCC iter.                  ...        0 min,  0.017 sec
     gradient                   ...        0 min,  0.006 sec
 * total energy  :   -94.6719406 Eh     change       -0.7159830E-05 Eh
   gradient norm :     0.0035438 Eh/α   predicted    -0.7660190E-05 (   6.99%)
   displ. norm   :     0.0517925 α      lambda       -0.1477746E-04
   maximum displ.:     0.0222081 α      in ANC's #10, #3, #12, ...

........................................................................
.............................. CYCLE   40 ..............................
........................................................................

 iter      E             dE          RMSdq      gap      omega  full diag
   1    -95.7148002 -0.957148E+02  0.141E-02    3.71       0.0  T
   2    -95.7148004 -0.151212E-06  0.841E-03    3.71       1.7  T
   3    -95.7148001  0.294278E-06  0.283E-03    3.72       4.9  T
   4    -95.7148004 -0.334517E-06  0.703E-04    3.72      19.9  T
   5    -95.7148004 -0.160271E-07  0.217E-04    3.72      64.6  T
     SCC iter.                  ...        0 min,  0.015 sec
     gradient                   ...        0 min,  0.006 sec
 * total energy  :   -94.6719490 Eh     change       -0.8413279E-05 Eh
   gradient norm :     0.0018342 Eh/α   predicted    -0.7410093E-05 ( -11.92%)
   displ. norm   :     0.0787327 α      lambda       -0.7334603E-05
   maximum displ.:     0.0542528 α      in ANC's #5, #3, #2, ...

........................................................................
.............................. CYCLE   41 ..............................
........................................................................

 iter      E             dE          RMSdq      gap      omega  full diag
   1    -95.7143565 -0.957144E+02  0.213E-02    3.72       0.0  T
   2    -95.7143568 -0.219923E-06  0.125E-02    3.72       1.1  T
   3    -95.7143567  0.100675E-06  0.184E-03    3.72       7.6  T
   4    -95.7143568 -0.108332E-06  0.841E-04    3.72      16.7  T
   5    -95.7143568 -0.271936E-07  0.247E-04    3.72      56.7  T
     SCC iter.                  ...        0 min,  0.015 sec
     gradient                   ...        0 min,  0.006 sec
 * total energy  :   -94.6719547 Eh     change       -0.5665289E-05 Eh
   gradient norm :     0.0009002 Eh/α   predicted    -0.3679317E-05 ( -35.06%)
   displ. norm   :     0.0682848 α      lambda       -0.4615084E-05
   maximum displ.:     0.0503869 α      in ANC's #5, #3, #2, ...

........................................................................
.............................. CYCLE   42 ..............................
........................................................................

 iter      E             dE          RMSdq      gap      omega  full diag
   1    -95.7143159 -0.957143E+02  0.208E-02    3.72       0.0  T
   2    -95.7143160 -0.908912E-07  0.123E-02    3.72       1.1  T
   3    -95.7143160  0.140271E-07  0.103E-03    3.72      13.6  T
   4    -95.7143160 -0.335408E-07  0.427E-04    3.72      32.8  T
   5    -95.7143160 -0.371284E-08  0.242E-04    3.72      57.9  T
     SCC iter.                  ...        0 min,  0.016 sec
     gradient                   ...        0 min,  0.008 sec
 * total energy  :   -94.6719575 Eh     change       -0.2855495E-05 Eh
   gradient norm :     0.0009921 Eh/α   predicted    -0.2317093E-05 ( -18.85%)
   displ. norm   :     0.1211097 α      lambda       -0.3915298E-05
   maximum displ.:     0.0885980 α      in ANC's #5, #3, #2, ...

   *** GEOMETRY OPTIMIZATION CONVERGED AFTER 42 ITERATIONS ***

------------------------------------------------------------------------
 total energy gain   :        -0.0658956 Eh      -41.3501 kcal/mol
 total RMSD          :         0.6238262 a0        0.3301 Å
 total power (kW/mol):        -4.1192593 (step) -115.7934 (real)
------------------------------------------------------------------------

 ANCopt (total)                0 d,  0 h,  0 min,  1.494 sec
 optimizer setup                ...        0 min,  0.000 sec (  0.008%)
 model hessian                  ...        0 min,  0.034 sec (  2.259%)
 ANC generation                 ...        0 min,  0.004 sec (  0.247%)
 coordinate transformation      ...        0 min,  0.001 sec (  0.075%)
 single point calculation       ...        0 min,  1.418 sec ( 94.934%)
 optimization log               ...        0 min,  0.017 sec (  1.108%)
 hessian update                 ...        0 min,  0.014 sec (  0.931%)
 rational function              ...        0 min,  0.005 sec (  0.317%)

================
 final structure:
================
51
 xtb: 6.7.1 (edcfbbe)
C            7.39368034647799       -0.22693012386300       -1.03166139006155
C            7.03641379775630        0.45348379870996        0.04771177954675
C            5.64057087764449        0.80727266533575        0.37771089225697
O            5.30719359815840        1.35036333255824        1.40055406073199
O            4.77300035792759        0.45990265349324       -0.59214369401210
C            3.40946755991833        0.77882041862250       -0.37355554893647
C            2.78044850182264       -0.14489302889274        0.67967372947981
N            1.32827420676522       -0.16828358900066        0.56720723566503
C            0.74549770554797       -1.25560589126622       -0.05605032010614
O            1.38534373976196       -2.17400943046535       -0.49787245617389
N           -0.63380787135405       -1.20753487655091       -0.14287550624525
C           -1.30308083658501       -2.33066206214942       -0.78316629242021
C           -1.59915503199985       -3.43600656689729        0.22797851254747
O           -2.25204091214532       -4.48937990633664       -0.46317482896842
C           -2.65660209725686       -5.52118022952173        0.29906551358168
O           -2.48484244300597       -5.56110635456047        1.49186461519396
C           -3.32469324532575       -6.58453322736340       -0.47825919805341
C           -3.49973159191324       -6.54530706896309       -1.79096177416527
C           -1.42926140842156       -0.20025908416360        0.37175578041564
O           -2.62956983571149       -0.21942751670533        0.29134846085927
N           -0.73913971905187        0.83111053149570        0.97810289117111
C           -1.51689745711101        1.94460269511536        1.50217305147397
C           -1.71749703183679        3.01624733389950        0.43311616994185
O           -2.50461137342081        4.05234871485230        0.99830059315958
C           -2.84288457228833        5.05355901781102        0.16499747011939
O           -2.51081524080977        5.08974993363208       -0.99249698347600
C           -3.65781461103372        6.06448091752095        0.86780654617449
C           -4.10435798595752        7.14301267181837        0.24075004244763
C            0.63933372992047        0.92190039632706        1.06469644874346
O            1.19372311906138        1.87189315028338        1.54886716769385
H            8.42417179839876       -0.46893624635937       -1.23127905640308
H            6.66341198051642       -0.55994298509365       -1.75070003195277
H            7.75400552081961        0.79134068372775        0.78146495638175
H            2.92429771654968        0.63436452750212       -1.34161680104885
H            3.31665793321894        1.82097193581664       -0.05071447433832
H            3.13381566625448       -1.16615589865856        0.52237311624566
H            3.04922519972864        0.20412022498619        1.67852761673914
H           -2.23751523414790       -1.96705520917409       -1.21338180685863
H           -0.64764217566075       -2.71670791428799       -1.56545696887390
H           -0.67034718581578       -3.81104174743653        0.67417705187764
H           -2.24859846353844       -3.06566780906690        1.03015947602353
H           -3.66254530008730       -7.41480922620226        0.12509264330866
H           -3.15420803593810       -5.71027330827806       -2.37657400996121
H           -3.99070178656009       -7.34558340613597       -2.31868576172713
H           -0.97635409509178        2.36835399502642        2.34985129295399
H           -2.48644676683963        1.56005846483692        1.82232908372630
H           -0.75300051620061        3.42512116120501        0.10902080137114
H           -2.23413170612807        2.60118853632509       -0.44080475496672
H           -3.85499878737955        5.85872364731761        1.90858327184228
H           -3.87565445773581        7.29703183099223       -0.80147949990709
H           -4.69958657988188        7.89127246817418        0.73496788697997
 
 Bond Distances (Angstroems)
 ---------------------------
C1-C2=1.3250         C1-H31=1.0772        C1-H32=1.0776        C2-C1=1.3250         C2-C3=1.4773         C2-H33=1.0805        
C3-C2=1.4773         C3-O4=1.2051         C3-O5=1.3468         O4-C3=1.2051         O5-C3=1.3468         O5-C6=1.4173         
C6-O5=1.4173         C6-C7=1.5356         C6-H34=1.0924        C6-H35=1.0950        C7-C6=1.5356         C7-N8=1.4567         
C7-H36=1.0921        C7-H37=1.0917        N8-C7=1.4567         N8-C9=1.3822         N8-C29=1.3823        C9-N8=1.3822         
C9-O10=1.2034        C9-N11=1.3829        O10-C9=1.2034        N11-C9=1.3829        N11-C12=1.4558       N11-C19=1.3828       
C12-N11=1.4558       C12-C13=1.5270       C12-H38=1.0911       C12-H39=1.0912       C13-C12=1.5270       C13-O14=1.4190       
C13-H40=1.0966       C13-H41=1.0966       O14-C13=1.4190       O14-C15=1.3451       C15-O14=1.3451       C15-O16=1.2058       
C15-C17=1.4769       O16-C15=1.2058       C17-C15=1.4769       C17-C18=1.3249       C17-H42=1.0805       C18-C17=1.3249       
C18-H43=1.0769       C18-H44=1.0770       C19-N11=1.3828       C19-O20=1.2032       C19-N21=1.3812       O20-C19=1.2032       
N21-C19=1.3812       N21-C22=1.4558       N21-C29=1.3842       C22-N21=1.4558       C22-C23=1.5269       C22-H45=1.0910       
C22-H46=1.0911       C23-C22=1.5269       C23-O24=1.4186       C23-H47=1.0966       C23-H48=1.0968       O24-C23=1.4186       
O24-C25=1.3458       C25-O24=1.3458       C25-O26=1.2047       C25-C27=1.4765       O26-C25=1.2047       C27-C25=1.4765       
C27-C28=1.3251       C27-H49=1.0791       C28-C27=1.3251       C28-H50=1.0781       C28-H51=1.0763       C29-N8=1.3823        
C29-N21=1.3842       C29-O30=1.2018       O30-C29=1.2018       H31-C1=1.0772        H32-C1=1.0776        H33-C2=1.0805        
H34-C6=1.0924        H35-C6=1.0950        H36-C7=1.0921        H37-C7=1.0917        H38-C12=1.0911       H39-C12=1.0912       
H40-C13=1.0966       H41-C13=1.0966       H42-C17=1.0805       H43-C18=1.0769       H44-C18=1.0770       H45-C22=1.0910       
H46-C22=1.0911       H47-C23=1.0966       H48-C23=1.0968       H49-C27=1.0791       H50-C28=1.0781       H51-C28=1.0763       
 C  H  Rav=1.0869 sigma=0.0079  Rmin=1.0763  Rmax=1.0968    21
 C  C  Rav=1.4439 sigma=0.0869  Rmin=1.3249  Rmax=1.5356     9
 N  C  Rav=1.4071 sigma=0.0347  Rmin=1.3812  Rmax=1.4567     9
 O  C  Rav=1.2930 sigma=0.0927  Rmin=1.2018  Rmax=1.4190    12
 
 selected bond angles (degree)
 --------------------
H31-C1-C2=121.62               H32-C1-C2=121.30               H32-C1-H31=117.08              C3-C2-C1=124.04                
H33-C2-C1=122.32               H33-C2-C3=113.64               O4-C3-C2=123.98                O5-C3-C2=112.71                
O5-C3-O4=123.31                C6-O5-C3=116.78                C7-C6-O5=111.38                H34-C6-O5=105.12               
H34-C6-C7=110.26               H35-C6-O5=109.95               H35-C6-C7=109.61               H35-C6-H34=110.46              
N8-C7-C6=111.41                H36-C7-C6=109.34               H36-C7-N8=107.24               H37-C7-C6=109.53               
H37-C7-N8=108.74               H37-C7-H36=110.55              C9-N8-C7=117.89                C29-N8-C7=117.16               
C29-N8-C9=124.93               O10-C9-N8=122.80               N11-C9-N8=114.93               N11-C9-O10=122.26              
 
 selected dihedral angles (degree)
 ---------------------------------
C3-C2-C1-H31=180.37           C3-C2-C1-H32=  0.56           H33-C2-C1-H31=359.52          H33-C2-C1-H32=179.71          
O4-C3-C2-C1=175.03            O4-C3-C2-H33=355.82           O5-C3-C2-C1=354.89            O5-C3-C2-H33=175.67           
C6-O5-C3-C2=180.95            C6-O5-C3-O4=  0.80            C7-C6-O5-C3=286.72            H34-C6-O5-C3=167.31           
H35-C6-O5-C3= 48.42           N8-C7-C6-O5=200.79            N8-C7-C6-H34=317.09           N8-C7-C6-H35= 78.89           
H36-C7-C6-O5=319.15           H36-C7-C6-H34= 75.46          H36-C7-C6-H35=197.26          H37-C7-C6-O5= 80.44           
H37-C7-C6-H34=196.75          H37-C7-C6-H35=318.55          C9-N8-C7-C6=101.63            C9-N8-C7-H36=342.01           
C9-N8-C7-H37=222.44           C29-N8-C7-C6=283.26           C29-N8-C7-H36=163.65          C29-N8-C7-H37= 44.08          
O10-C9-N8-C7=  0.33           O10-C9-N8-C29=178.56          N11-C9-N8-C7=180.71           N11-C9-N8-C29=358.94          
           -------------------------------------------------
          |                Final Singlepoint                |
           -------------------------------------------------

          ...................................................
          :                      SETUP                      :
          :.................................................:
          :  # basis functions                 141          :
          :  # atomic orbitals                 141          :
          :  # shells                           81          :
          :  # electrons                       162          :
          :  max. iterations                   250          :
          :  Hamiltonian                  GFN2-xTB          :
          :  restarted?                      false          :
          :  GBSA solvation                  false          :
          :  PC potential                    false          :
          :  electronic temp.          300.0000000     K    :
          :  accuracy                    1.0000000          :
          :  -> integral cutoff          0.2500000E+02      :
          :  -> integral neglect         0.1000000E-07      :
          :  -> SCF convergence          0.1000000E-05 Eh   :
          :  -> wf. convergence          0.1000000E-03 e    :
          :  Broyden damping             0.4000000          :
          :  net charge                          0          :
          :  unpaired electrons                  0          :
          ...................................................

 iter      E             dE          RMSdq      gap      omega  full diag
   1    -95.7143160 -0.957143E+02  0.969E-05    3.72       0.0  T
   2    -95.7143160 -0.609930E-10  0.682E-05    3.72     205.3  T
   3    -95.7143160 -0.611351E-10  0.450E-05    3.72     311.2  T

   *** convergence criteria satisfied after 3 iterations ***

         #    Occupation            Energy/Eh            Energy/eV
      -------------------------------------------------------------
         1        2.0000           -0.7617352             -20.7279
       ...           ...                  ...                  ...
        75        2.0000           -0.4481745             -12.1954
        76        2.0000           -0.4464065             -12.1473
        77        2.0000           -0.4453656             -12.1190
        78        2.0000           -0.4448110             -12.1039
        79        2.0000           -0.4240201             -11.5382
        80        2.0000           -0.4237400             -11.5306
        81        2.0000           -0.4233184             -11.5191 (HOMO)
        82                         -0.2866056              -7.7989 (LUMO)
        83                         -0.2858804              -7.7792
        84                         -0.2835599              -7.7161
        85                         -0.2692911              -7.3278
        86                         -0.2687632              -7.3134
       ...                                ...                  ...
       141                          0.7005304              19.0624
      -------------------------------------------------------------
                  HL-Gap            0.1367128 Eh            3.7201 eV
             Fermi-level           -0.3549620 Eh           -9.6590 eV

 SCC (total)                   0 d,  0 h,  0 min,  0.059 sec
 SCC setup                      ...        0 min,  0.001 sec (  1.290%)
 Dispersion                     ...        0 min,  0.001 sec (  0.854%)
 classical contributions        ...        0 min,  0.000 sec (  0.204%)
 integral evaluation            ...        0 min,  0.002 sec (  3.851%)
 iterations                     ...        0 min,  0.011 sec ( 19.279%)
 molecular gradient             ...        0 min,  0.044 sec ( 74.107%)
 printout                       ...        0 min,  0.000 sec (  0.369%)

         :::::::::::::::::::::::::::::::::::::::::::::::::::::
         ::                     SUMMARY                     ::
         :::::::::::::::::::::::::::::::::::::::::::::::::::::
         :: total energy             -94.671957542819 Eh    ::
         :: gradient norm              0.000991755693 Eh/a0 ::
         :: HOMO-LUMO gap              3.720144745366 eV    ::
         ::.................................................::
         :: SCC energy               -95.714673177518 Eh    ::
         :: -> isotropic ES            0.226983419409 Eh    ::
         :: -> anisotropic ES          0.001611348286 Eh    ::
         :: -> anisotropic XC          0.014197971463 Eh    ::
         :: -> dispersion             -0.048510890829 Eh    ::
         :: repulsion energy           1.042715634699 Eh    ::
         :: add. restraining           0.000000000000 Eh    ::
         :: total charge              -0.000000000000 e     ::
         :::::::::::::::::::::::::::::::::::::::::::::::::::::

           -------------------------------------------------
          |                Property Printout                |
           -------------------------------------------------

    * Orbital Energies and Occupations

         #    Occupation            Energy/Eh            Energy/eV
      -------------------------------------------------------------
         1        2.0000           -0.7617352             -20.7279
       ...           ...                  ...                  ...
        69        2.0000           -0.4655252             -12.6676
        70        2.0000           -0.4597555             -12.5106
        71        2.0000           -0.4556321             -12.3984
        72        2.0000           -0.4540649             -12.3557
        73        2.0000           -0.4524347             -12.3114
        74        2.0000           -0.4494927             -12.2313
        75        2.0000           -0.4481745             -12.1954
        76        2.0000           -0.4464065             -12.1473
        77        2.0000           -0.4453656             -12.1190
        78        2.0000           -0.4448110             -12.1039
        79        2.0000           -0.4240201             -11.5382
        80        2.0000           -0.4237400             -11.5306
        81        2.0000           -0.4233184             -11.5191 (HOMO)
        82                         -0.2866056              -7.7989 (LUMO)
        83                         -0.2858804              -7.7792
        84                         -0.2835599              -7.7161
        85                         -0.2692911              -7.3278
        86                         -0.2687632              -7.3134
        87                         -0.1809521              -4.9240
        88                         -0.1744728              -4.7476
        89                         -0.1734806              -4.7206
        90                         -0.1729894              -4.7073
        91                         -0.0953304              -2.5941
        92                         -0.0420052              -1.1430
       ...                                ...                  ...
       141                          0.7005304              19.0624
      -------------------------------------------------------------
                  HL-Gap            0.1367128 Eh            3.7201 eV
             Fermi-level           -0.3549620 Eh           -9.6590 eV

     #   Z          covCN         q      C6AA      α(0)
     1   6 C        2.838    -0.061    29.508     8.902
     2   6 C        2.887    -0.057    29.423     8.893
     3   6 C        2.723     0.354    20.994     7.501
     4   8 O        0.857    -0.401    21.695     6.245
     5   8 O        1.705    -0.259    18.297     5.775
     6   6 C        3.703     0.074    19.490     6.312
     7   6 C        3.753    -0.004    20.702     6.488
     8   7 N        2.746    -0.124    23.693     7.229
     9   6 C        2.713     0.327    21.436     7.579
    10   8 O        0.859    -0.403    21.730     6.250
    11   7 N        2.747    -0.124    23.701     7.230
    12   6 C        3.755    -0.003    20.688     6.485
    13   6 C        3.709     0.080    19.383     6.292
    14   8 O        1.705    -0.259    18.297     5.775
    15   6 C        2.729     0.356    20.956     7.494
    16   8 O        0.857    -0.404    21.769     6.255
    17   6 C        2.887    -0.057    29.404     8.890
    18   6 C        2.838    -0.061    29.514     8.903
    19   6 C        2.714     0.327    21.441     7.580
    20   8 O        0.859    -0.402    21.720     6.249
    21   7 N        2.747    -0.124    23.688     7.229
    22   6 C        3.755    -0.004    20.700     6.487
    23   6 C        3.708     0.080    19.384     6.293
    24   8 O        1.706    -0.261    18.324     5.779
    25   6 C        2.731     0.356    20.951     7.494
    26   8 O        0.856    -0.405    21.787     6.258
    27   6 C        2.887    -0.058    29.430     8.894
    28   6 C        2.842    -0.058    29.423     8.890
    29   6 C        2.715     0.326    21.456     7.582
    30   8 O        0.859    -0.394    21.569     6.227
    31   1 H        0.926     0.068     2.113     2.273
    32   1 H        0.926     0.076     2.026     2.226
    33   1 H        0.926     0.076     2.021     2.223
    34   1 H        0.924     0.065     2.146     2.291
    35   1 H        0.924     0.078     2.003     2.213
    36   1 H        0.924     0.096     1.823     2.111
    37   1 H        0.924     0.099     1.793     2.094
    38   1 H        0.924     0.097     1.810     2.104
    39   1 H        0.924     0.096     1.820     2.110
    40   1 H        0.924     0.065     2.136     2.285
    41   1 H        0.924     0.066     2.128     2.281
    42   1 H        0.926     0.076     2.021     2.223
    43   1 H        0.926     0.074     2.043     2.235
    44   1 H        0.926     0.067     2.114     2.274
    45   1 H        0.924     0.098     1.800     2.098
    46   1 H        0.924     0.098     1.799     2.098
    47   1 H        0.924     0.064     2.147     2.292
    48   1 H        0.924     0.064     2.149     2.293
    49   1 H        0.926     0.069     2.096     2.264
    50   1 H        0.926     0.082     1.962     2.190
    51   1 H        0.926     0.068     2.108     2.271

 Mol. C6AA /au·bohr⁶  :      29463.688356
 Mol. C8AA /au·bohr⁸  :     674049.112999
 Mol. α(0) /au        :        259.912181


Wiberg/Mayer (AO) data.
largest (>0.10) Wiberg bond orders for each atom

 ---------------------------------------------------------------------------
     #   Z sym  total        # sym  WBO       # sym  WBO       # sym  WBO
 ---------------------------------------------------------------------------
     1   6 C    3.981 --     2 C    1.930    31 H    0.974    32 H    0.971
     2   6 C    3.987 --     1 C    1.930     3 C    1.017    33 H    0.962
     3   6 C    3.918 --     4 O    1.738     5 O    1.101     2 C    1.017
     4   8 O    2.044 --     3 C    1.738     5 O    0.167
     5   8 O    2.300 --     3 C    1.101     6 C    0.961     4 O    0.167
     6   6 C    3.934 --     7 C    0.984    34 H    0.971    35 H    0.965
                             5 O    0.961
     7   6 C    3.938 --     6 C    0.984     8 N    0.963    36 H    0.963
                            37 H    0.963
     8   7 N    3.534 --     9 C    1.103    29 C    1.099     7 C    0.963
                            10 O    0.131    30 O    0.130
     9   6 C    3.961 --    10 O    1.676     8 N    1.103    11 N    1.099
    10   8 O    2.035 --     9 C    1.676     8 N    0.131    11 N    0.129
    11   7 N    3.531 --     9 C    1.099    19 C    1.099    12 C    0.966
                            20 O    0.130    10 O    0.129
    12   6 C    3.941 --    13 C    0.993    11 N    0.966    39 H    0.963
                            38 H    0.963
    13   6 C    3.935 --    12 C    0.993    41 H    0.965    40 H    0.965
                            14 O    0.957
    14   8 O    2.297 --    15 C    1.104    13 C    0.957    16 O    0.169
    15   6 C    3.916 --    16 O    1.735    14 O    1.104    17 C    1.016
    16   8 O    2.039 --    15 C    1.735    14 O    0.169
    17   6 C    3.987 --    18 C    1.931    15 C    1.016    42 H    0.962
    18   6 C    3.982 --    17 C    1.931    44 H    0.974    43 H    0.971
    19   6 C    3.961 --    20 O    1.677    21 N    1.103    11 N    1.099
    20   8 O    2.034 --    19 C    1.677    21 N    0.131    11 N    0.130
    21   7 N    3.532 --    19 C    1.103    29 C    1.095    22 C    0.965
                            20 O    0.131    30 O    0.131
    22   6 C    3.940 --    23 C    0.993    21 N    0.965    45 H    0.963
                            46 H    0.963
    23   6 C    3.936 --    22 C    0.993    48 H    0.966    47 H    0.965
                            24 O    0.957
    24   8 O    2.298 --    25 C    1.103    23 C    0.957    26 O    0.170
    25   6 C    3.915 --    26 O    1.735    24 O    1.103    27 C    1.015
    26   8 O    2.041 --    25 C    1.735    24 O    0.170
    27   6 C    3.987 --    28 C    1.928    25 C    1.015    49 H    0.964
    28   6 C    3.980 --    27 C    1.928    51 H    0.975    50 H    0.970
    29   6 C    3.961 --    30 O    1.686     8 N    1.099    21 N    1.095
    30   8 O    2.042 --    29 C    1.686    21 N    0.131     8 N    0.130
    31   1 H    0.995 --     1 C    0.974
    32   1 H    0.994 --     1 C    0.971
    33   1 H    0.994 --     2 C    0.962
    34   1 H    0.996 --     6 C    0.971
    35   1 H    0.994 --     6 C    0.965
    36   1 H    0.990 --     7 C    0.963
    37   1 H    0.989 --     7 C    0.963
    38   1 H    0.990 --    12 C    0.963
    39   1 H    0.990 --    12 C    0.963
    40   1 H    0.996 --    13 C    0.965
    41   1 H    0.996 --    13 C    0.965
    42   1 H    0.994 --    17 C    0.962
    43   1 H    0.995 --    18 C    0.971
    44   1 H    0.995 --    18 C    0.974
    45   1 H    0.990 --    22 C    0.963
    46   1 H    0.990 --    22 C    0.963
    47   1 H    0.996 --    23 C    0.965
    48   1 H    0.996 --    23 C    0.966
    49   1 H    0.995 --    27 C    0.964
    50   1 H    0.993 --    28 C    0.970
    51   1 H    0.994 --    28 C    0.975
 ---------------------------------------------------------------------------

Topologies differ in total number of bonds
Writing topology from bond orders to xtbtopo.mol

molecular dipole:
                 x           y           z       tot (Debye)
 q only:       -0.085      -0.192      -1.043
   full:       -0.089      -0.242      -1.087       2.839
molecular quadrupole (traceless):
                xx          xy          yy          xz          yz          zz
 q only:       12.849     -12.223      -0.507      -8.956      22.313     -12.342
  q+dip:       11.353     -12.355      -3.446     -10.215      22.382      -7.907
   full:       12.195     -12.061      -2.555     -10.283      20.803      -9.640

           -------------------------------------------------
          |                Geometry Summary                 |
           -------------------------------------------------

      molecular mass/u    :      423.3747559
   center of mass at/Å    :        0.0082797      -0.0048678       0.2135814
  moments of inertia/u·Å² :        0.4818254E+04   0.5585672E+04   0.9823181E+04
rotational constants/cm⁻¹ :        0.3498701E-02   0.3018013E-02   0.1716107E-02

 * 48 selected distances

     #   Z          #   Z                                           value/Å
     1   6 C        2   6 C                                       1.3250092
     3   6 C        4   8 O                                       1.2051126
     3   6 C        5   8 O                                       1.3468344
     5   8 O        6   6 C                                       1.4172902
     6   6 C        7   6 C                                       1.5356444 (max)
     7   6 C        8   7 N                                       1.4567108
     8   7 N        9   6 C                                       1.3821536
     9   6 C       10   8 O                                       1.2033599
     9   6 C       11   7 N                                       1.3828715
    11   7 N       12   6 C                                       1.4557863
    12   6 C       13   6 C                                       1.5270431
    13   6 C       14   8 O                                       1.4189957
    14   8 O       15   6 C                                       1.3450994
    15   6 C       16   8 O                                       1.2057634
    17   6 C       18   6 C                                       1.3249021
    11   7 N       19   6 C                                       1.3828220
    19   6 C       20   8 O                                       1.2031514
    19   6 C       21   7 N                                       1.3811765
    21   7 N       22   6 C                                       1.4558234
    22   6 C       23   6 C                                       1.5269399
    23   6 C       24   8 O                                       1.4186222
    24   8 O       25   6 C                                       1.3458251
    25   6 C       26   8 O                                       1.2047296
    27   6 C       28   6 C                                       1.3250781
     8   7 N       29   6 C                                       1.3822576
    21   7 N       29   6 C                                       1.3841715
    29   6 C       30   8 O                                       1.2017718
     1   6 C       31   1 H                                       1.0771848
     1   6 C       32   1 H                                       1.0775928
     2   6 C       33   1 H                                       1.0804995
     6   6 C       34   1 H                                       1.0924285
     6   6 C       35   1 H                                       1.0949521
     7   6 C       36   1 H                                       1.0920576
     7   6 C       37   1 H                                       1.0916778
    12   6 C       38   1 H                                       1.0910835
    12   6 C       39   1 H                                       1.0911508
    13   6 C       40   1 H                                       1.0965531
    13   6 C       41   1 H                                       1.0965501
    17   6 C       42   1 H                                       1.0805258
    18   6 C       43   1 H                                       1.0768518
    18   6 C       44   1 H                                       1.0770268
    22   6 C       45   1 H                                       1.0910137
    22   6 C       46   1 H                                       1.0910546
    23   6 C       47   1 H                                       1.0965716
    23   6 C       48   1 H                                       1.0967786
    27   6 C       49   1 H                                       1.0790895
    28   6 C       50   1 H                                       1.0780862
    28   6 C       51   1 H                                       1.0763091 (min)

 * 4 distinct bonds (by element types)

   Z      Z             #   av. dist./Å        max./Å        min./Å
   1 H    6 C          21     1.0869066     1.0967786     1.0763091
   6 C    6 C           6     1.4274361     1.5356444     1.3249021
   6 C    7 N           9     1.4070859     1.4567108     1.3811765
   6 C    8 O          12     1.2930463     1.4189957     1.2017718


optimized geometry written to: xtbopt.xyz


           -------------------------------------------------
          | TOTAL ENERGY              -94.671957542819 Eh   |
          | GRADIENT NORM               0.000991755693 Eh/α |
          | HOMO-LUMO GAP               3.720144745366 eV   |
           -------------------------------------------------

------------------------------------------------------------------------
 * finished run on 2025/12/01 at 14:23:24.201     
------------------------------------------------------------------------
 total:
 * wall-time:     0 d,  0 h,  0 min,  1.629 sec
 *  cpu-time:     0 d,  0 h,  0 min, 37.234 sec
 * ratio c/w:    22.856 speedup
 SCF:
 * wall-time:     0 d,  0 h,  0 min,  0.061 sec
 *  cpu-time:     0 d,  0 h,  0 min,  1.385 sec
 * ratio c/w:    22.821 speedup
 ANC optimizer:
 * wall-time:     0 d,  0 h,  0 min,  1.555 sec
 *  cpu-time:     0 d,  0 h,  0 min, 35.573 sec
 * ratio c/w:    22.879 speedup

normal termination of xtb
