      -----------------------------------------------------------      
     |                   =====================                   |     
     |                           x T B                           |     
     |                   =====================                   |     
     |                         S. Grimme                         |     
     |          Mulliken Center for Theoretical Chemistry        |     
     |                    University of Bonn                     |     
      -----------------------------------------------------------      

   * xtb version 6.7.1 (edcfbbe) compiled by 'albert@albert-system' on 2024-07-22

   xtb is free software: you can redistribute it and/or modify it under
   the terms of the GNU Lesser General Public License as published by
   the Free Software Foundation, either version 3 of the License, or
   (at your option) any later version.
   
   xtb is distributed in the hope that it will be useful,
   but WITHOUT ANY WARRANTY; without even the implied warranty of
   MERCHANTABILITY or FITNESS FOR A PARTICULAR PURPOSE.  See the
   GNU Lesser General Public License for more details.
   
   Cite this work as:
   * C. Bannwarth, E. Caldeweyher, S. Ehlert, A. Hansen, P. Pracht,
     J. Seibert, S. Spicher, S. Grimme, WIREs Comput. Mol. Sci., 2020, 11,
     e01493. DOI: 10.1002/wcms.1493
   
   for GFN2-xTB:
   * C. Bannwarth, S. Ehlert and S. Grimme., J. Chem. Theory Comput., 2019,
     15, 1652-1671. DOI: 10.1021/acs.jctc.8b01176
   for GFN1-xTB:
   * S. Grimme, C. Bannwarth, P. Shushkov, J. Chem. Theory Comput., 2017,
     13, 1989-2009. DOI: 10.1021/acs.jctc.7b00118
   for GFN0-xTB:
   * P. Pracht, E. Caldeweyher, S. Ehlert, S. Grimme, ChemRxiv, 2019, preprint.
     DOI: 10.26434/chemrxiv.8326202.v1
   for GFN-FF:
   * S. Spicher and S. Grimme, Angew. Chem. Int. Ed., 2020, 59, 15665-15673.
     DOI: 10.1002/anie.202004239
   
   for ALPB and GBSA implicit solvation:
   * S. Ehlert, M. Stahn, S. Spicher, S. Grimme, J. Chem. Theory Comput.,
     2021, 17, 4250-4261. DOI: 10.1021/acs.jctc.1c00471
   
   for ddCOSMO and CPCM-X implicit solvation:
   * M. Stahn, S. Ehlert, S. Grimme, J. Phys. Chem. A,
     2023, XX, XXXX-XXXX. DOI: 10.1021/acs.jpca.3c04382
   
   for DFT-D4:
   * E. Caldeweyher, C. Bannwarth and S. Grimme, J. Chem. Phys., 2017,
     147, 034112. DOI: 10.1063/1.4993215
   * E. Caldeweyher, S. Ehlert, A. Hansen, H. Neugebauer, S. Spicher,
     C. Bannwarth and S. Grimme, J. Chem. Phys., 2019, 150, 154122.
     DOI: 10.1063/1.5090222
   * E. Caldeweyher, J.-M. Mewes, S. Ehlert and S. Grimme, Phys. Chem. Chem. Phys.
     2020, 22, 8499-8512. DOI: 10.1039/D0CP00502A
   
   for sTDA-xTB:
   * S. Grimme and C. Bannwarth, J. Chem. Phys., 2016, 145, 054103.
     DOI: 10.1063/1.4959605
   
   in the mass-spec context:
   * V. Asgeirsson, C. Bauer and S. Grimme, Chem. Sci., 2017, 8, 4879.
     DOI: 10.1039/c7sc00601b
   * J. Koopman and S. Grimme, ACS Omega 2019, 4, 12, 15120-15133.
     DOI: 10.1021/acsomega.9b02011
   
   for metadynamics refer to:
   * S. Grimme, J. Chem. Theory Comput., 2019, 155, 2847-2862
     DOI: 10.1021/acs.jctc.9b00143
   
   for SPH calculations refer to:
   * S. Spicher and S. Grimme, J. Chem. Theory Comput., 2021, 17, 1701-1714
     DOI: 10.1021/acs.jctc.0c01306
   
   for ONIOM refer to:
   * C. Plett, A. Katbashev, S. Ehlert, S. Grimme, M. Bursch,
     Phys. Chem. Chem. Phys., 2023, 25, 17860-17868. DOI: 10.1039/D3CP02178E
   
   for DIPRO refer to:
   * J. Kohn, N. Gildemeister, S. Grimme, D. Fazzi, A. Hansen,
     J. Chem. Phys., 2023, just accepted.
   
   for PTB refer to:
   * S. Grimme, M. Mueller, A. Hansen, J. Chem. Phys., 2023, 158, 124111.
     DOI: 10.1063/5.0137838
   
   with help from (in alphabetical order)
   P. Atkinson, C. Bannwarth, F. Bohle, G. Brandenburg, E. Caldeweyher
   M. Checinski, S. Dohm, S. Ehlert, S. Ehrlich, I. Gerasimov, C. Hölzer
   A. Katbashev, J. Kohn, J. Koopman, C. Lavigne, S. Lehtola, F. März, M. Müller,
   F. Musil, H. Neugebauer, J. Pisarek, C. Plett, P. Pracht, F. Pultar,
   J. Seibert, P. Shushkov, S. Spicher, M. Stahn, M. Steiner, T. Strunk,
   J. Stückrath, T. Rose, and J. Unsleber
   
 * started run on 2025/12/01 at 14:23:28.319     
   ID    Z sym.   atoms
    1    6 C      1-3, 5-7, 9, 11, 12, 14-16, 18, 20, 21
    2    8 O      4, 8, 10, 13, 17, 19
    3    1 H      22-45

           -------------------------------------------------
          |                Calculation Setup                |
           -------------------------------------------------

          program call               : xtb pipeline_data/3_conformer_xyz/acrylates/rdkit/ZDQNWDNMNKSMHI-FRRDWIJNSA-N_conf135.xyz --opt --gfn 2-xTB --iterations 250
          coordinate file            : pipeline_data/3_conformer_xyz/acrylates/rdkit/ZDQNWDNMNKSMHI-FRRDWIJNSA-N_conf135.xyz
          omp threads                :                    24

########################################################################
[WARNING] Please study the warnings concerning your input carefully
-1- readin_getIntValue: could not parse '2-xTB'
########################################################################

           -------------------------------------------------
          |                 G F N 2 - x T B                 |
           -------------------------------------------------

        Reference                      10.1021/acs.jctc.8b01176
      * Hamiltonian:
        H0-scaling (s, p, d)           1.850000    2.230000    2.230000
        zeta-weighting                 0.500000
      * Dispersion:
        s8                             2.700000
        a1                             0.520000
        a2                             5.000000
        s9                             5.000000
      * Repulsion:
        kExp                           1.500000    1.000000
        rExp                           1.000000
      * Coulomb:
        alpha                          2.000000
        third order                    shell-resolved
        anisotropic                    true
        a3                             3.000000
        a5                             4.000000
        cn-shift                       1.200000
        cn-exp                         4.000000
        max-rad                        5.000000

q/qsh data taken from xtbrestart
CAMM data taken from xtbrestart

          ...................................................
          :                      SETUP                      :
          :.................................................:
          :  # basis functions                 108          :
          :  # atomic orbitals                 108          :
          :  # shells                           66          :
          :  # electrons                       120          :
          :  max. iterations                   250          :
          :  Hamiltonian                  GFN2-xTB          :
          :  restarted?                       true          :
          :  GBSA solvation                  false          :
          :  PC potential                    false          :
          :  electronic temp.          300.0000000     K    :
          :  accuracy                    1.0000000          :
          :  -> integral cutoff          0.2500000E+02      :
          :  -> integral neglect         0.1000000E-07      :
          :  -> SCF convergence          0.1000000E-05 Eh   :
          :  -> wf. convergence          0.1000000E-03 e    :
          :  Broyden damping             0.4000000          :
          :  net charge                          0          :
          :  unpaired electrons                  0          :
          ...................................................

 iter      E             dE          RMSdq      gap      omega  full diag
   1    -69.3670526 -0.693671E+02  0.522E+00    3.03       0.0  T
   2    -69.3854027 -0.183501E-01  0.310E+00    2.79       1.0  T
   3    -69.3880849 -0.268218E-02  0.358E-01    2.84       1.0  T
   4    -69.3885185 -0.433629E-03  0.257E-01    2.98       1.0  T
   5    -69.3899688 -0.145024E-02  0.108E-01    2.98       1.0  T
   6    -69.3900433 -0.745534E-04  0.338E-02    2.98       1.0  T
   7    -69.3900578 -0.144245E-04  0.110E-02    2.98       1.4  T
   8    -69.3900591 -0.136328E-05  0.464E-03    2.97       3.2  T
   9    -69.3900592 -0.921487E-07  0.212E-03    2.97       7.0  T
  10    -69.3900592 -0.130119E-07  0.105E-03    2.98      14.2  T
  11    -69.3900593 -0.321181E-07  0.386E-04    2.98      38.6  T
  12    -69.3900593 -0.112318E-08  0.145E-04    2.98     102.6  T

   *** convergence criteria satisfied after 12 iterations ***

         #    Occupation            Energy/Eh            Energy/eV
      -------------------------------------------------------------
         1        2.0000           -0.7349270             -19.9984
       ...           ...                  ...                  ...
        54        2.0000           -0.4375630             -11.9067
        55        2.0000           -0.4368307             -11.8868
        56        2.0000           -0.4265003             -11.6057
        57        2.0000           -0.4183652             -11.3843
        58        2.0000           -0.4122679             -11.2184
        59        2.0000           -0.4107659             -11.1775
        60        2.0000           -0.3989769             -10.8567 (HOMO)
        61                         -0.2896445              -7.8816 (LUMO)
        62                         -0.2815516              -7.6614
        63                         -0.1768964              -4.8136
        64                         -0.1687725              -4.5925
        65                         -0.0428536              -1.1661
       ...                                ...                  ...
       108                          0.6405169              17.4294
      -------------------------------------------------------------
                  HL-Gap            0.1093324 Eh            2.9751 eV
             Fermi-level           -0.3443107 Eh           -9.3692 eV

 SCC (total)                   0 d,  0 h,  0 min,  0.045 sec
 SCC setup                      ...        0 min,  0.000 sec (  0.577%)
 Dispersion                     ...        0 min,  0.000 sec (  1.084%)
 classical contributions        ...        0 min,  0.000 sec (  0.132%)
 integral evaluation            ...        0 min,  0.002 sec (  3.777%)
 iterations                     ...        0 min,  0.037 sec ( 82.292%)
 molecular gradient             ...        0 min,  0.005 sec ( 11.570%)
 printout                       ...        0 min,  0.000 sec (  0.501%)

         :::::::::::::::::::::::::::::::::::::::::::::::::::::
         ::                     SUMMARY                     ::
         :::::::::::::::::::::::::::::::::::::::::::::::::::::
         :: total energy             -68.661742472869 Eh    ::
         :: gradient norm              0.171224283262 Eh/a0 ::
         :: HOMO-LUMO gap              2.975087303999 eV    ::
         ::.................................................::
         :: SCC energy               -69.389656030555 Eh    ::
         :: -> isotropic ES            0.126767146648 Eh    ::
         :: -> anisotropic ES          0.005762382077 Eh    ::
         :: -> anisotropic XC          0.013937555823 Eh    ::
         :: -> dispersion             -0.035060640064 Eh    ::
         :: repulsion energy           0.727913557687 Eh    ::
         :: add. restraining           0.000000000000 Eh    ::
         :: total charge              -0.000000000000 e     ::
         :::::::::::::::::::::::::::::::::::::::::::::::::::::

      ----------------------------------------------------------- 
     |                   =====================                   |
     |                        A N C O P T                        |
     |                   =====================                   |
     |               Approximate Normal Coordinate               |
     |                Rational Function Optimizer                |
      ----------------------------------------------------------- 
      ----------------------------------------------------------- 
     |                   =====================                   |
     |                        A N C O P T                        |
     |                   =====================                   |
     |               Approximate Normal Coordinate               |
     |                Rational Function Optimizer                |
      ----------------------------------------------------------- 

          ...................................................
          :                      SETUP                      :
          :.................................................:
          :   optimization level            normal          :
          :   max. optcycles                   200          :
          :   ANC micro-cycles                  20          :
          :   degrees of freedom               129          :
          :.................................................:
          :   RF solver                   davidson          :
          :   write xtbopt.log                true          :
          :   linear?                        false          :
          :   energy convergence         0.5000000E-05 Eh   :
          :   grad. convergence          0.1000000E-02 Eh/α :
          :   maxmium RF displ.          1.0000000          :
          :   Hlow (freq-cutoff)         0.1000000E-01      :
          :   Hmax (freq-cutoff)         5.0000000          :
          :   S6 in model hess.         20.0000000          :
          ...................................................

generating ANC from exact Hessian ...
Using Lindh-Hessian (1995)
 Shifting diagonal of input Hessian by   9.880912100581628E-003
 Lowest  eigenvalues of input Hessian
    0.000000    0.000000    0.000000    0.000000    0.000000    0.000000
    0.010000    0.010036    0.010201    0.010351    0.010605    0.010911
    0.011649    0.012258    0.012692    0.013194    0.014129    0.015070
 Highest eigenvalues
    1.758939    1.788295    1.927364    2.009123    2.180982    2.200182
 

........................................................................
.............................. CYCLE    1 ..............................
........................................................................

 iter      E             dE          RMSdq      gap      omega  full diag
   1    -69.3900593 -0.693901E+02  0.495E-05    2.98       0.0  T
   2    -69.3900593 -0.139835E-10  0.300E-05    2.98     496.7  T
   3    -69.3900593 -0.164846E-11  0.201E-05    2.98     741.7  T
     SCC iter.                  ...        0 min,  0.009 sec
     gradient                   ...        0 min,  0.005 sec
 * total energy  :   -68.6617425 Eh     change       -0.2175540E-09 Eh
   gradient norm :     0.1712253 Eh/α   predicted     0.0000000E+00 (-100.00%)
   displ. norm   :     0.4413429 α      lambda       -0.4039405E-01
   maximum displ.:     0.1269881 α      in ANC's #29, #31, #19, ...

........................................................................
.............................. CYCLE    2 ..............................
........................................................................

 iter      E             dE          RMSdq      gap      omega  full diag
   1    -69.4438699 -0.694439E+02  0.285E-01    3.24       0.0  T
   2    -69.4442356 -0.365688E-03  0.175E-01    3.17       1.0  T
   3    -69.4441464  0.891684E-04  0.768E-02    3.15       1.0  T
   4    -69.4442544 -0.107910E-03  0.313E-02    3.14       1.0  T
   5    -69.4442874 -0.329981E-04  0.878E-03    3.14       1.7  T
   6    -69.4442886 -0.125311E-05  0.441E-03    3.15       3.4  T
   7    -69.4442887 -0.108333E-06  0.162E-03    3.15       9.2  T
   8    -69.4442887 -0.109134E-07  0.473E-04    3.15      31.5  T
   9    -69.4442887 -0.861050E-09  0.230E-04    3.15      64.9  T
     SCC iter.                  ...        0 min,  0.025 sec
     gradient                   ...        0 min,  0.005 sec
 * total energy  :   -68.6907941 Eh     change       -0.2905165E-01 Eh
   gradient norm :     0.0721695 Eh/α   predicted    -0.2417230E-01 ( -16.80%)
   displ. norm   :     0.4639377 α      lambda       -0.1576102E-01
   maximum displ.:     0.2011628 α      in ANC's #31, #19, #29, ...

........................................................................
.............................. CYCLE    3 ..............................
........................................................................

 iter      E             dE          RMSdq      gap      omega  full diag
   1    -69.4690115 -0.694690E+02  0.212E-01    3.34       0.0  T
   2    -69.4691655 -0.154030E-03  0.128E-01    3.29       1.0  T
   3    -69.4691098  0.556681E-04  0.542E-02    3.27       1.0  T
   4    -69.4691717 -0.618963E-04  0.215E-02    3.27       1.0  T
   5    -69.4691872 -0.154634E-04  0.551E-03    3.27       2.7  T
   6    -69.4691877 -0.551122E-06  0.242E-03    3.28       6.2  T
   7    -69.4691878 -0.296919E-07  0.102E-03    3.28      14.6  T
   8    -69.4691878 -0.388631E-08  0.306E-04    3.28      48.7  T
   9    -69.4691878 -0.576435E-09  0.131E-04    3.28     114.1  T
     SCC iter.                  ...        0 min,  0.037 sec
     gradient                   ...        0 min,  0.004 sec
 * total energy  :   -68.7009818 Eh     change       -0.1018767E-01 Eh
   gradient norm :     0.0217884 Eh/α   predicted    -0.9576700E-02 (  -6.00%)
   displ. norm   :     0.4168772 α      lambda       -0.4456175E-02
   maximum displ.:     0.1887402 α      in ANC's #19, #21, #31, ...

........................................................................
.............................. CYCLE    4 ..............................
........................................................................

 iter      E             dE          RMSdq      gap      omega  full diag
   1    -69.4694771 -0.694695E+02  0.113E-01    3.33       0.0  T
   2    -69.4695053 -0.282577E-04  0.670E-02    3.31       1.0  T
   3    -69.4694924  0.129354E-04  0.265E-02    3.31       1.0  T
   4    -69.4695058 -0.133725E-04  0.102E-02    3.31       1.5  T
   5    -69.4695094 -0.364494E-05  0.214E-03    3.31       7.0  T
   6    -69.4695095 -0.739107E-07  0.870E-04    3.31      17.1  T
   7    -69.4695095 -0.416402E-08  0.339E-04    3.31      43.9  T
     SCC iter.                  ...        0 min,  0.030 sec
     gradient                   ...        0 min,  0.006 sec
 * total energy  :   -68.7041636 Eh     change       -0.3181838E-02 Eh
   gradient norm :     0.0133842 Eh/α   predicted    -0.2615341E-02 ( -17.80%)
   displ. norm   :     0.4339073 α      lambda       -0.2410468E-02
   maximum displ.:     0.1998314 α      in ANC's #19, #21, #10, ...

........................................................................
.............................. CYCLE    5 ..............................
........................................................................

 iter      E             dE          RMSdq      gap      omega  full diag
   1    -69.4696971 -0.694697E+02  0.913E-02    3.33       0.0  T
   2    -69.4697129 -0.158743E-04  0.539E-02    3.33       1.0  T
   3    -69.4697108  0.209206E-05  0.144E-02    3.33       1.0  T
   4    -69.4697130 -0.218353E-05  0.638E-03    3.33       2.3  T
   5    -69.4697144 -0.135676E-05  0.177E-03    3.33       8.4  T
   6    -69.4697144 -0.420755E-07  0.760E-04    3.33      19.6  T
   7    -69.4697144 -0.478964E-08  0.269E-04    3.33      55.4  T
     SCC iter.                  ...        0 min,  0.016 sec
     gradient                   ...        0 min,  0.006 sec
 * total energy  :   -68.7059051 Eh     change       -0.1741521E-02 Eh
   gradient norm :     0.0109187 Eh/α   predicted    -0.1432156E-02 ( -17.76%)
   displ. norm   :     0.4492474 α      lambda       -0.1632721E-02
   maximum displ.:     0.1855664 α      in ANC's #19, #21, #12, ...

........................................................................
.............................. CYCLE    6 ..............................
........................................................................

 iter      E             dE          RMSdq      gap      omega  full diag
   1    -69.4709689 -0.694710E+02  0.886E-02    3.34       0.0  T
   2    -69.4709753 -0.642869E-05  0.526E-02    3.34       1.0  T
   3    -69.4709751  0.175259E-06  0.702E-03    3.35       2.1  T
   4    -69.4709758 -0.672821E-06  0.313E-03    3.35       4.8  T
   5    -69.4709761 -0.239663E-06  0.163E-03    3.35       9.2  T
   6    -69.4709761 -0.365913E-07  0.606E-04    3.35      24.6  T
   7    -69.4709761 -0.334110E-08  0.210E-04    3.35      71.0  T
     SCC iter.                  ...        0 min,  0.032 sec
     gradient                   ...        0 min,  0.007 sec
 * total energy  :   -68.7071133 Eh     change       -0.1208126E-02 Eh
   gradient norm :     0.0116238 Eh/α   predicted    -0.9811238E-03 ( -18.79%)
   displ. norm   :     0.4993115 α      lambda       -0.1499883E-02
   maximum displ.:     0.2194075 α      in ANC's #12, #19, #10, ...

........................................................................
.............................. CYCLE    7 ..............................
........................................................................

 iter      E             dE          RMSdq      gap      omega  full diag
   1    -69.4729309 -0.694729E+02  0.964E-02    3.34       0.0  T
   2    -69.4729369 -0.602932E-05  0.574E-02    3.35       1.0  T
   3    -69.4729364  0.493850E-06  0.724E-03    3.36       2.1  T
   4    -69.4729373 -0.825082E-06  0.390E-03    3.36       3.8  T
   5    -69.4729377 -0.468782E-06  0.159E-03    3.36       9.4  T
   6    -69.4729377 -0.257112E-07  0.546E-04    3.36      27.3  T
   7    -69.4729377 -0.144875E-08  0.207E-04    3.36      71.8  T
     SCC iter.                  ...        0 min,  0.016 sec
     gradient                   ...        0 min,  0.005 sec
 * total energy  :   -68.7082266 Eh     change       -0.1113370E-02 Eh
   gradient norm :     0.0126967 Eh/α   predicted    -0.9369228E-03 ( -15.85%)
   displ. norm   :     0.5077201 α      lambda       -0.1371388E-02
   maximum displ.:     0.2641355 α      in ANC's #12, #7, #10, ...

........................................................................
.............................. CYCLE    8 ..............................
........................................................................

 iter      E             dE          RMSdq      gap      omega  full diag
   1    -69.4756033 -0.694756E+02  0.104E-01    3.36       0.0  T
   2    -69.4756078 -0.456376E-05  0.617E-02    3.37       1.0  T
   3    -69.4756062  0.164977E-05  0.881E-03    3.37       1.7  T
   4    -69.4756082 -0.199356E-05  0.420E-03    3.37       3.5  T
   5    -69.4756087 -0.535618E-06  0.143E-03    3.37      10.4  T
   6    -69.4756087 -0.128036E-07  0.537E-04    3.37      27.8  T
   7    -69.4756087 -0.890608E-09  0.179E-04    3.37      83.2  T
     SCC iter.                  ...        0 min,  0.017 sec
     gradient                   ...        0 min,  0.005 sec
 * total energy  :   -68.7092656 Eh     change       -0.1038910E-02 Eh
   gradient norm :     0.0113593 Eh/α   predicted    -0.8624541E-03 ( -16.98%)
   displ. norm   :     0.4921555 α      lambda       -0.1110615E-02
   maximum displ.:     0.2914498 α      in ANC's #12, #7, #10, ...

........................................................................
.............................. CYCLE    9 ..............................
........................................................................

 iter      E             dE          RMSdq      gap      omega  full diag
   1    -69.4774841 -0.694775E+02  0.109E-01    3.37       0.0  T
   2    -69.4774879 -0.385554E-05  0.643E-02    3.38       1.0  T
   3    -69.4774873  0.670134E-06  0.692E-03    3.38       2.2  T
   4    -69.4774883 -0.101078E-05  0.362E-03    3.38       4.1  T
   5    -69.4774887 -0.377793E-06  0.138E-03    3.38      10.8  T
   6    -69.4774887 -0.124942E-07  0.506E-04    3.38      29.5  T
   7    -69.4774887 -0.228653E-08  0.173E-04    3.38      86.2  T
     SCC iter.                  ...        0 min,  0.016 sec
     gradient                   ...        0 min,  0.005 sec
 * total energy  :   -68.7101056 Eh     change       -0.8400609E-03 Eh
   gradient norm :     0.0092009 Eh/α   predicted    -0.6898185E-03 ( -17.88%)
   displ. norm   :     0.4566722 α      lambda       -0.8170318E-03
   maximum displ.:     0.2815450 α      in ANC's #12, #7, #14, ...

........................................................................
.............................. CYCLE   10 ..............................
........................................................................

 iter      E             dE          RMSdq      gap      omega  full diag
   1    -69.4779266 -0.694779E+02  0.114E-01    3.39       0.0  T
   2    -69.4779296 -0.303435E-05  0.674E-02    3.39       1.0  T
   3    -69.4779293  0.370281E-06  0.606E-03    3.39       2.5  T
   4    -69.4779302 -0.870991E-06  0.321E-03    3.39       4.6  T
   5    -69.4779304 -0.252013E-06  0.144E-03    3.39      10.4  T
   6    -69.4779304 -0.105130E-07  0.506E-04    3.39      29.5  T
   7    -69.4779304 -0.382497E-08  0.149E-04    3.39     100.0  T
     SCC iter.                  ...        0 min,  0.016 sec
     gradient                   ...        0 min,  0.006 sec
 * total energy  :   -68.7106942 Eh     change       -0.5885849E-03 Eh
   gradient norm :     0.0084117 Eh/α   predicted    -0.4937130E-03 ( -16.12%)
   displ. norm   :     0.3978610 α      lambda       -0.5867013E-03
   maximum displ.:     0.2393304 α      in ANC's #12, #14, #7, ...

........................................................................
.............................. CYCLE   11 ..............................
........................................................................

 iter      E             dE          RMSdq      gap      omega  full diag
   1    -69.4797326 -0.694797E+02  0.937E-02    3.41       0.0  T
   2    -69.4797374 -0.477342E-05  0.555E-02    3.40       1.0  T
   3    -69.4797368  0.556381E-06  0.676E-03    3.40       2.2  T
   4    -69.4797378 -0.940769E-06  0.321E-03    3.40       4.6  T
   5    -69.4797380 -0.272753E-06  0.136E-03    3.40      11.0  T
   6    -69.4797381 -0.181811E-07  0.588E-04    3.40      25.4  T
   7    -69.4797381 -0.411350E-08  0.185E-04    3.40      80.7  T
     SCC iter.                  ...        0 min,  0.016 sec
     gradient                   ...        0 min,  0.005 sec
 * total energy  :   -68.7110600 Eh     change       -0.3657839E-03 Eh
   gradient norm :     0.0093805 Eh/α   predicted    -0.3397910E-03 (  -7.11%)
   displ. norm   :     0.3233870 α      lambda       -0.4522311E-03
   maximum displ.:     0.1602521 α      in ANC's #12, #7, #14, ...

........................................................................
.............................. CYCLE   12 ..............................
........................................................................

 iter      E             dE          RMSdq      gap      omega  full diag
   1    -69.4803649 -0.694804E+02  0.971E-02    3.41       0.0  T
   2    -69.4803756 -0.107303E-04  0.571E-02    3.40       1.0  T
   3    -69.4803743  0.135162E-05  0.999E-03    3.40       1.5  T
   4    -69.4803754 -0.109115E-05  0.558E-03    3.40       2.7  T
   5    -69.4803765 -0.116175E-05  0.142E-03    3.40      10.5  T
   6    -69.4803765 -0.677858E-08  0.540E-04    3.40      27.6  T
   7    -69.4803765 -0.149687E-08  0.183E-04    3.40      81.2  T
     SCC iter.                  ...        0 min,  0.017 sec
     gradient                   ...        0 min,  0.005 sec
 * total energy  :   -68.7113231 Eh     change       -0.2631022E-03 Eh
   gradient norm :     0.0087769 Eh/α   predicted    -0.2497867E-03 (  -5.06%)
   displ. norm   :     0.3069655 α      lambda       -0.3370252E-03
   maximum displ.:     0.1295249 α      in ANC's #14, #12, #7, ...

........................................................................
.............................. CYCLE   13 ..............................
........................................................................

 iter      E             dE          RMSdq      gap      omega  full diag
   1    -69.4766398 -0.694766E+02  0.799E-02    3.41       0.0  T
   2    -69.4766447 -0.492292E-05  0.473E-02    3.41       1.0  T
   3    -69.4766444  0.305696E-06  0.653E-03    3.41       2.3  T
   4    -69.4766450 -0.554532E-06  0.343E-03    3.41       4.3  T
   5    -69.4766453 -0.351689E-06  0.136E-03    3.41      11.0  T
   6    -69.4766453 -0.126540E-07  0.504E-04    3.41      29.5  T
   7    -69.4766453 -0.268902E-08  0.157E-04    3.41      95.0  T
     SCC iter.                  ...        0 min,  0.016 sec
     gradient                   ...        0 min,  0.005 sec
 * total energy  :   -68.7114924 Eh     change       -0.1692977E-03 Eh
   gradient norm :     0.0098400 Eh/α   predicted    -0.1843928E-03 (   8.92%)
   displ. norm   :     0.3038612 α      lambda       -0.5942626E-03
   maximum displ.:     0.1140704 α      in ANC's #6, #3, #8, ...

........................................................................
.............................. CYCLE   14 ..............................
........................................................................

 iter      E             dE          RMSdq      gap      omega  full diag
   1    -69.4864943 -0.694865E+02  0.904E-02    3.42       0.0  T
   2    -69.4865082 -0.139025E-04  0.537E-02    3.41       1.0  T
   3    -69.4865071  0.104848E-05  0.120E-02    3.42       1.2  T
   4    -69.4865094 -0.223616E-05  0.344E-03    3.42       4.3  T
   5    -69.4865096 -0.219658E-06  0.195E-03    3.42       7.6  T
   6    -69.4865096 -0.669662E-07  0.103E-03    3.42      14.5  T
   7    -69.4865097 -0.108124E-07  0.258E-04    3.42      57.7  T
   8    -69.4865097 -0.258225E-09  0.781E-05    3.42     190.8  T
     SCC iter.                  ...        0 min,  0.018 sec
     gradient                   ...        0 min,  0.005 sec
 * total energy  :   -68.7116412 Eh     change       -0.1488427E-03 Eh
   gradient norm :     0.0148541 Eh/α   predicted    -0.3245708E-03 ( 118.06%)
   displ. norm   :     0.2424868 α      lambda       -0.5308195E-03
   maximum displ.:     0.1490571 α      in ANC's #7, #3, #6, ...

........................................................................
.............................. CYCLE   15 ..............................
........................................................................

 iter      E             dE          RMSdq      gap      omega  full diag
   1    -69.4808761 -0.694809E+02  0.968E-02    3.41       0.0  T
   2    -69.4808908 -0.147654E-04  0.576E-02    3.41       1.0  T
   3    -69.4808862  0.465227E-05  0.143E-02    3.42       1.0  T
   4    -69.4808909 -0.474600E-05  0.626E-03    3.42       2.4  T
   5    -69.4808924 -0.143724E-05  0.163E-03    3.42       9.2  T
   6    -69.4808924 -0.275044E-07  0.934E-04    3.42      16.0  T
   7    -69.4808924 -0.402416E-08  0.184E-04    3.42      81.0  T
     SCC iter.                  ...        0 min,  0.016 sec
     gradient                   ...        0 min,  0.005 sec
 * total energy  :   -68.7119090 Eh     change       -0.2677686E-03 Eh
   gradient norm :     0.0106954 Eh/α   predicted    -0.2810183E-03 (   4.95%)
   displ. norm   :     0.1929426 α      lambda       -0.3423688E-03
   maximum displ.:     0.0918540 α      in ANC's #6, #7, #3, ...

........................................................................
.............................. CYCLE   16 ..............................
........................................................................

 iter      E             dE          RMSdq      gap      omega  full diag
   1    -69.4791472 -0.694791E+02  0.656E-02    3.41       0.0  T
   2    -69.4791502 -0.303569E-05  0.390E-02    3.41       1.0  T
   3    -69.4791492  0.995278E-06  0.671E-03    3.42       2.2  T
   4    -69.4791503 -0.110969E-05  0.338E-03    3.42       4.4  T
   5    -69.4791507 -0.360328E-06  0.110E-03    3.42      13.5  T
   6    -69.4791507 -0.256145E-08  0.405E-04    3.42      36.8  T
   7    -69.4791507 -0.156255E-08  0.111E-04    3.42     134.9  T
     SCC iter.                  ...        0 min,  0.016 sec
     gradient                   ...        0 min,  0.005 sec
 * total energy  :   -68.7121036 Eh     change       -0.1946460E-03 Eh
   gradient norm :     0.0110296 Eh/α   predicted    -0.1775581E-03 (  -8.78%)
   displ. norm   :     0.3100182 α      lambda       -0.4160258E-03
   maximum displ.:     0.1479758 α      in ANC's #6, #3, #7, ...

........................................................................
.............................. CYCLE   17 ..............................
........................................................................

 iter      E             dE          RMSdq      gap      omega  full diag
   1    -69.4764105 -0.694764E+02  0.955E-02    3.41       0.0  T
   2    -69.4764172 -0.668905E-05  0.568E-02    3.42       1.0  T
   3    -69.4764140  0.315032E-05  0.111E-02    3.43       1.3  T
   4    -69.4764174 -0.337566E-05  0.511E-03    3.42       2.9  T
   5    -69.4764183 -0.862789E-06  0.159E-03    3.42       9.4  T
   6    -69.4764183 -0.685174E-08  0.689E-04    3.42      21.6  T
   7    -69.4764183 -0.405380E-08  0.170E-04    3.42      87.7  T
     SCC iter.                  ...        0 min,  0.016 sec
     gradient                   ...        0 min,  0.005 sec
 * total energy  :   -68.7122663 Eh     change       -0.1626800E-03 Eh
   gradient norm :     0.0145113 Eh/α   predicted    -0.2280089E-03 (  40.16%)
   displ. norm   :     0.2718686 α      lambda       -0.4379317E-03
   maximum displ.:     0.1217887 α      in ANC's #3, #6, #7, ...

........................................................................
.............................. CYCLE   18 ..............................
........................................................................

 iter      E             dE          RMSdq      gap      omega  full diag
   1    -69.4809059 -0.694809E+02  0.809E-02    3.45       0.0  T
   2    -69.4809118 -0.587453E-05  0.481E-02    3.45       1.0  T
   3    -69.4809080  0.384141E-05  0.116E-02    3.44       1.3  T
   4    -69.4809121 -0.415859E-05  0.456E-03    3.44       3.3  T
   5    -69.4809128 -0.676474E-06  0.132E-03    3.44      11.3  T
   6    -69.4809128 -0.754196E-08  0.694E-04    3.44      21.5  T
   7    -69.4809128 -0.280507E-08  0.141E-04    3.44     105.4  T
     SCC iter.                  ...        0 min,  0.016 sec
     gradient                   ...        0 min,  0.005 sec
 * total energy  :   -68.7125284 Eh     change       -0.2620974E-03 Eh
   gradient norm :     0.0059729 Eh/α   predicted    -0.2351562E-03 ( -10.28%)
   displ. norm   :     0.4368563 α      lambda       -0.2741317E-03
   maximum displ.:     0.2002827 α      in ANC's #7, #6, #3, ...

........................................................................
.............................. CYCLE   19 ..............................
........................................................................

 iter      E             dE          RMSdq      gap      omega  full diag
   1    -69.4780794 -0.694781E+02  0.135E-01    3.44       0.0  T
   2    -69.4780853 -0.590393E-05  0.798E-02    3.43       1.0  T
   3    -69.4780841  0.115747E-05  0.914E-03    3.43       1.6  T
   4    -69.4780866 -0.248509E-05  0.358E-03    3.43       4.2  T
   5    -69.4780868 -0.164735E-06  0.223E-03    3.43       6.7  T
   6    -69.4780868 -0.701276E-07  0.924E-04    3.43      16.1  T
   7    -69.4780868 -0.688974E-08  0.179E-04    3.43      83.4  T
     SCC iter.                  ...        0 min,  0.016 sec
     gradient                   ...        0 min,  0.005 sec
 * total energy  :   -68.7126813 Eh     change       -0.1529234E-03 Eh
   gradient norm :     0.0084043 Eh/α   predicted    -0.1632253E-03 (   6.74%)
   displ. norm   :     0.2271021 α      lambda       -0.2464261E-03
   maximum displ.:     0.1244710 α      in ANC's #6, #3, #4, ...

........................................................................
.............................. CYCLE   20 ..............................
........................................................................

 iter      E             dE          RMSdq      gap      omega  full diag
   1    -69.4837560 -0.694838E+02  0.549E-02    3.44       0.0  T
   2    -69.4837586 -0.255156E-05  0.325E-02    3.43       1.0  T
   3    -69.4837561  0.250234E-05  0.918E-03    3.43       1.6  T
   4    -69.4837589 -0.287609E-05  0.287E-03    3.43       5.2  T
   5    -69.4837592 -0.255355E-06  0.989E-04    3.43      15.1  T
   6    -69.4837592 -0.585166E-08  0.471E-04    3.43      31.7  T
     SCC iter.                  ...        0 min,  0.015 sec
     gradient                   ...        0 min,  0.005 sec
 * total energy  :   -68.7128214 Eh     change       -0.1400191E-03 Eh
   gradient norm :     0.0075257 Eh/α   predicted    -0.1295704E-03 (  -7.46%)
   displ. norm   :     0.4020084 α      lambda       -0.2900471E-03
   maximum displ.:     0.2186894 α      in ANC's #6, #7, #3, ...
 * RMSD in coord.:     0.8243300 α      energy gain  -0.5107889E-01 Eh

generating ANC from exact Hessian ...
Using Lindh-Hessian (1995)
 Shifting diagonal of input Hessian by   9.868632571601978E-003
 Lowest  eigenvalues of input Hessian
    0.000000    0.000000    0.000000    0.000000    0.000000    0.000000
    0.010000    0.010039    0.010184    0.010313    0.010486    0.011077
    0.011828    0.012330    0.012843    0.013023    0.014401    0.014521
 Highest eigenvalues
    1.759618    1.817014    1.951313    2.024472    2.388347    2.389038
 

........................................................................
.............................. CYCLE   21 ..............................
........................................................................

 iter      E             dE          RMSdq      gap      omega  full diag
   1    -69.4821144 -0.694821E+02  0.119E-01    3.42       0.0  T
   2    -69.4821249 -0.105406E-04  0.705E-02    3.42       1.0  T
   3    -69.4821222  0.269119E-05  0.111E-02    3.42       1.3  T
   4    -69.4821249 -0.268125E-05  0.599E-03    3.42       2.5  T
   5    -69.4821262 -0.125019E-05  0.168E-03    3.42       8.9  T
   6    -69.4821262 -0.662241E-08  0.710E-04    3.42      21.0  T
   7    -69.4821262 -0.447346E-08  0.169E-04    3.42      88.0  T
     SCC iter.                  ...        0 min,  0.016 sec
     gradient                   ...        0 min,  0.005 sec
 * total energy  :   -68.7129715 Eh     change       -0.1501418E-03 Eh
   gradient norm :     0.0086409 Eh/α   predicted     0.0000000E+00 (-100.00%)
   displ. norm   :     0.0775353 α      lambda       -0.2031830E-03
   maximum displ.:     0.0359443 α      in ANC's #7, #6, #21, ...

........................................................................
.............................. CYCLE   22 ..............................
........................................................................

 iter      E             dE          RMSdq      gap      omega  full diag
   1    -69.4830025 -0.694830E+02  0.342E-02    3.42       0.0  T
   2    -69.4830040 -0.153642E-05  0.205E-02    3.42       1.0  T
   3    -69.4830023  0.170893E-05  0.771E-03    3.42       1.9  T
   4    -69.4830042 -0.189127E-05  0.232E-03    3.42       6.4  T
   5    -69.4830044 -0.172993E-06  0.627E-04    3.42      23.8  T
   6    -69.4830044 -0.273151E-08  0.327E-04    3.42      45.6  T
     SCC iter.                  ...        0 min,  0.014 sec
     gradient                   ...        0 min,  0.005 sec
 * total energy  :   -68.7131094 Eh     change       -0.1379203E-03 Eh
   gradient norm :     0.0028602 Eh/α   predicted    -0.1053282E-03 ( -23.63%)
   displ. norm   :     0.1409443 α      lambda       -0.1768929E-03
   maximum displ.:     0.0755777 α      in ANC's #7, #6, #24, ...

........................................................................
.............................. CYCLE   23 ..............................
........................................................................

 iter      E             dE          RMSdq      gap      omega  full diag
   1    -69.4836064 -0.694836E+02  0.556E-02    3.42       0.0  T
   2    -69.4836080 -0.157096E-05  0.331E-02    3.42       1.0  T
   3    -69.4836057  0.235204E-05  0.854E-03    3.43       1.7  T
   4    -69.4836083 -0.264453E-05  0.247E-03    3.43       6.0  T
   5    -69.4836085 -0.167059E-06  0.891E-04    3.43      16.7  T
   6    -69.4836085 -0.412230E-08  0.399E-04    3.43      37.3  T
     SCC iter.                  ...        0 min,  0.017 sec
     gradient                   ...        0 min,  0.005 sec
 * total energy  :   -68.7132201 Eh     change       -0.1107118E-03 Eh
   gradient norm :     0.0052021 Eh/α   predicted    -0.9020811E-04 ( -18.52%)
   displ. norm   :     0.1872638 α      lambda       -0.1470329E-03
   maximum displ.:     0.1035174 α      in ANC's #7, #6, #24, ...

........................................................................
.............................. CYCLE   24 ..............................
........................................................................

 iter      E             dE          RMSdq      gap      omega  full diag
   1    -69.4831079 -0.694831E+02  0.736E-02    3.42       0.0  T
   2    -69.4831088 -0.940068E-06  0.437E-02    3.42       1.0  T
   3    -69.4831087  0.147845E-06  0.396E-03    3.42       3.8  T
   4    -69.4831091 -0.386166E-06  0.206E-03    3.42       7.2  T
   5    -69.4831091 -0.798523E-07  0.952E-04    3.42      15.7  T
   6    -69.4831092 -0.703483E-08  0.292E-04    3.42      51.0  T
     SCC iter.                  ...        0 min,  0.027 sec
     gradient                   ...        0 min,  0.008 sec
 * total energy  :   -68.7133344 Eh     change       -0.1142288E-03 Eh
   gradient norm :     0.0065130 Eh/α   predicted    -0.7609482E-04 ( -33.38%)
   displ. norm   :     0.2834781 α      lambda       -0.2043827E-03
   maximum displ.:     0.1542181 α      in ANC's #7, #6, #4, ...

........................................................................
.............................. CYCLE   25 ..............................
........................................................................

 iter      E             dE          RMSdq      gap      omega  full diag
   1    -69.4819247 -0.694819E+02  0.109E-01    3.41       0.0  T
   2    -69.4819270 -0.228223E-05  0.649E-02    3.41       1.0  T
   3    -69.4819275 -0.471503E-06  0.372E-03    3.41       4.0  T
   4    -69.4819276 -0.138971E-06  0.219E-03    3.41       6.8  T
   5    -69.4819277 -0.168166E-07  0.141E-03    3.41      10.6  T
   6    -69.4819277 -0.333865E-07  0.422E-04    3.41      35.3  T
   7    -69.4819277 -0.324565E-08  0.145E-04    3.41     102.5  T
     SCC iter.                  ...        0 min,  0.016 sec
     gradient                   ...        0 min,  0.005 sec
 * total energy  :   -68.7134879 Eh     change       -0.1535464E-03 Eh
   gradient norm :     0.0061126 Eh/α   predicted    -0.1104110E-03 ( -28.09%)
   displ. norm   :     0.2805845 α      lambda       -0.1742460E-03
   maximum displ.:     0.1465162 α      in ANC's #7, #6, #4, ...

........................................................................
.............................. CYCLE   26 ..............................
........................................................................

 iter      E             dE          RMSdq      gap      omega  full diag
   1    -69.4815847 -0.694816E+02  0.107E-01    3.40       0.0  T
   2    -69.4815866 -0.189647E-05  0.634E-02    3.40       1.0  T
   3    -69.4815867 -0.913985E-07  0.442E-03    3.40       3.4  T
   4    -69.4815871 -0.376498E-06  0.270E-03    3.40       5.5  T
   5    -69.4815872 -0.149318E-06  0.133E-03    3.40      11.2  T
   6    -69.4815873 -0.120861E-07  0.382E-04    3.40      39.0  T
   7    -69.4815873 -0.166214E-08  0.134E-04    3.40     111.4  T
     SCC iter.                  ...        0 min,  0.016 sec
     gradient                   ...        0 min,  0.006 sec
 * total energy  :   -68.7136117 Eh     change       -0.1238365E-03 Eh
   gradient norm :     0.0059618 Eh/α   predicted    -0.9399209E-04 ( -24.10%)
   displ. norm   :     0.2272362 α      lambda       -0.1274690E-03
   maximum displ.:     0.1201596 α      in ANC's #6, #7, #4, ...

........................................................................
.............................. CYCLE   27 ..............................
........................................................................

 iter      E             dE          RMSdq      gap      omega  full diag
   1    -69.4828296 -0.694828E+02  0.794E-02    3.40       0.0  T
   2    -69.4828305 -0.936475E-06  0.469E-02    3.39       1.0  T
   3    -69.4828303  0.276122E-06  0.428E-03    3.39       3.5  T
   4    -69.4828308 -0.572939E-06  0.198E-03    3.39       7.5  T
   5    -69.4828309 -0.722521E-07  0.971E-04    3.39      15.3  T
   6    -69.4828309 -0.847626E-08  0.342E-04    3.39      43.5  T
     SCC iter.                  ...        0 min,  0.014 sec
     gradient                   ...        0 min,  0.005 sec
 * total energy  :   -68.7137062 Eh     change       -0.9443688E-04 Eh
   gradient norm :     0.0043287 Eh/α   predicted    -0.6702898E-04 ( -29.02%)
   displ. norm   :     0.2699770 α      lambda       -0.1140528E-03
   maximum displ.:     0.1392001 α      in ANC's #6, #7, #4, ...

........................................................................
.............................. CYCLE   28 ..............................
........................................................................

 iter      E             dE          RMSdq      gap      omega  full diag
   1    -69.4834715 -0.694835E+02  0.921E-02    3.38       0.0  T
   2    -69.4834728 -0.134882E-05  0.544E-02    3.38       1.0  T
   3    -69.4834725  0.288743E-06  0.473E-03    3.38       3.2  T
   4    -69.4834732 -0.641037E-06  0.232E-03    3.38       6.4  T
   5    -69.4834733 -0.119149E-06  0.111E-03    3.38      13.4  T
   6    -69.4834733 -0.104556E-07  0.412E-04    3.38      36.2  T
   7    -69.4834733 -0.898297E-09  0.107E-04    3.38     139.2  T
     SCC iter.                  ...        0 min,  0.021 sec
     gradient                   ...        0 min,  0.012 sec
 * total energy  :   -68.7137924 Eh     change       -0.8625924E-04 Eh
   gradient norm :     0.0035360 Eh/α   predicted    -0.6118634E-04 ( -29.07%)
   displ. norm   :     0.2747201 α      lambda       -0.1062018E-03
   maximum displ.:     0.1408766 α      in ANC's #6, #4, #8, ...

........................................................................
.............................. CYCLE   29 ..............................
........................................................................

 iter      E             dE          RMSdq      gap      omega  full diag
   1    -69.4845824 -0.694846E+02  0.917E-02    3.38       0.0  T
   2    -69.4845839 -0.149820E-05  0.540E-02    3.38       1.0  T
   3    -69.4845834  0.531212E-06  0.520E-03    3.37       2.9  T
   4    -69.4845843 -0.884381E-06  0.217E-03    3.37       6.9  T
   5    -69.4845844 -0.106794E-06  0.110E-03    3.37      13.5  T
   6    -69.4845844 -0.124715E-07  0.424E-04    3.37      35.2  T
   7    -69.4845844 -0.804036E-09  0.103E-04    3.37     144.1  T
     SCC iter.                  ...        0 min,  0.033 sec
     gradient                   ...        0 min,  0.007 sec
 * total energy  :   -68.7138682 Eh     change       -0.7578797E-04 Eh
   gradient norm :     0.0036088 Eh/α   predicted    -0.5713052E-04 ( -24.62%)
   displ. norm   :     0.2890115 α      lambda       -0.8079732E-04
   maximum displ.:     0.1467612 α      in ANC's #6, #4, #8, ...

........................................................................
.............................. CYCLE   30 ..............................
........................................................................

 iter      E             dE          RMSdq      gap      omega  full diag
   1    -69.4835709 -0.694836E+02  0.101E-01    3.36       0.0  T
   2    -69.4835720 -0.103106E-05  0.594E-02    3.35       1.0  T
   3    -69.4835718  0.154650E-06  0.429E-03    3.36       3.5  T
   4    -69.4835723 -0.523707E-06  0.203E-03    3.36       7.3  T
   5    -69.4835724 -0.796382E-07  0.101E-03    3.36      14.7  T
   6    -69.4835724 -0.603370E-08  0.285E-04    3.35      52.4  T
   7    -69.4835724 -0.805514E-09  0.876E-05    3.35     170.1  T
     SCC iter.                  ...        0 min,  0.016 sec
     gradient                   ...        0 min,  0.006 sec
 * total energy  :   -68.7139216 Eh     change       -0.5340384E-04 Eh
   gradient norm :     0.0035295 Eh/α   predicted    -0.4377431E-04 ( -18.03%)
   displ. norm   :     0.1893744 α      lambda       -0.7470079E-04
   maximum displ.:     0.0844814 α      in ANC's #6, #4, #1, ...

........................................................................
.............................. CYCLE   31 ..............................
........................................................................

 iter      E             dE          RMSdq      gap      omega  full diag
   1    -69.4858570 -0.694859E+02  0.645E-02    3.35       0.0  T
   2    -69.4858581 -0.111923E-05  0.382E-02    3.35       1.0  T
   3    -69.4858570  0.114745E-05  0.615E-03    3.35       2.4  T
   4    -69.4858584 -0.139471E-05  0.184E-03    3.35       8.1  T
   5    -69.4858585 -0.926716E-07  0.784E-04    3.35      19.0  T
   6    -69.4858585 -0.306389E-08  0.248E-04    3.35      60.1  T
     SCC iter.                  ...        0 min,  0.015 sec
     gradient                   ...        0 min,  0.005 sec
 * total energy  :   -68.7139597 Eh     change       -0.3808320E-04 Eh
   gradient norm :     0.0046917 Eh/α   predicted    -0.3869039E-04 (   1.59%)
   displ. norm   :     0.2070464 α      lambda       -0.6135061E-04
   maximum displ.:     0.1040904 α      in ANC's #6, #4, #1, ...

........................................................................
.............................. CYCLE   32 ..............................
........................................................................

 iter      E             dE          RMSdq      gap      omega  full diag
   1    -69.4838688 -0.694839E+02  0.792E-02    3.34       0.0  T
   2    -69.4838696 -0.794604E-06  0.468E-02    3.34       1.0  T
   3    -69.4838695  0.461150E-07  0.296E-03    3.34       5.0  T
   4    -69.4838697 -0.232333E-06  0.152E-03    3.34       9.8  T
   5    -69.4838698 -0.519543E-07  0.777E-04    3.34      19.2  T
   6    -69.4838698 -0.393088E-08  0.273E-04    3.34      54.5  T
     SCC iter.                  ...        0 min,  0.014 sec
     gradient                   ...        0 min,  0.005 sec
 * total energy  :   -68.7139892 Eh     change       -0.2949552E-04 Eh
   gradient norm :     0.0030082 Eh/α   predicted    -0.3200674E-04 (   8.51%)
   displ. norm   :     0.0685071 α      lambda       -0.4460520E-04
   maximum displ.:     0.0307416 α      in ANC's #1, #4, #3, ...

........................................................................
.............................. CYCLE   33 ..............................
........................................................................

 iter      E             dE          RMSdq      gap      omega  full diag
   1    -69.4844788 -0.694845E+02  0.216E-02    3.34       0.0  T
   2    -69.4844790 -0.186430E-06  0.129E-02    3.34       1.2  T
   3    -69.4844790  0.439797E-07  0.158E-03    3.35       9.5  T
   4    -69.4844790 -0.542293E-07  0.806E-04    3.35      18.5  T
   5    -69.4844790 -0.198016E-07  0.281E-04    3.35      53.1  T
     SCC iter.                  ...        0 min,  0.012 sec
     gradient                   ...        0 min,  0.005 sec
 * total energy  :   -68.7140222 Eh     change       -0.3303069E-04 Eh
   gradient norm :     0.0019061 Eh/α   predicted    -0.2240982E-04 ( -32.15%)
   displ. norm   :     0.2225962 α      lambda       -0.6071213E-04
   maximum displ.:     0.0973085 α      in ANC's #1, #3, #4, ...

........................................................................
.............................. CYCLE   34 ..............................
........................................................................

 iter      E             dE          RMSdq      gap      omega  full diag
   1    -69.4846800 -0.694847E+02  0.692E-02    3.35       0.0  T
   2    -69.4846820 -0.204513E-05  0.411E-02    3.35       1.0  T
   3    -69.4846818  0.198351E-06  0.424E-03    3.35       3.5  T
   4    -69.4846821 -0.319412E-06  0.220E-03    3.35       6.8  T
   5    -69.4846823 -0.136140E-06  0.874E-04    3.35      17.1  T
   6    -69.4846823 -0.727560E-08  0.354E-04    3.35      42.1  T
     SCC iter.                  ...        0 min,  0.014 sec
     gradient                   ...        0 min,  0.006 sec
 * total energy  :   -68.7140715 Eh     change       -0.4925020E-04 Eh
   gradient norm :     0.0040958 Eh/α   predicted    -0.3102823E-04 ( -37.00%)
   displ. norm   :     0.1098970 α      lambda       -0.3647152E-04
   maximum displ.:     0.0533074 α      in ANC's #1, #4, #3, ...

........................................................................
.............................. CYCLE   35 ..............................
........................................................................

 iter      E             dE          RMSdq      gap      omega  full diag
   1    -69.4846957 -0.694847E+02  0.333E-02    3.36       0.0  T
   2    -69.4846959 -0.206296E-06  0.197E-02    3.36       1.0  T
   3    -69.4846958  0.418667E-07  0.148E-03    3.35      10.1  T
   4    -69.4846959 -0.613182E-07  0.826E-04    3.35      18.1  T
   5    -69.4846959 -0.199474E-07  0.308E-04    3.35      48.4  T
     SCC iter.                  ...        0 min,  0.012 sec
     gradient                   ...        0 min,  0.006 sec
 * total energy  :   -68.7141003 Eh     change       -0.2877900E-04 Eh
   gradient norm :     0.0030960 Eh/α   predicted    -0.1845673E-04 ( -35.87%)
   displ. norm   :     0.2343425 α      lambda       -0.7009845E-04
   maximum displ.:     0.1170203 α      in ANC's #1, #6, #4, ...

........................................................................
.............................. CYCLE   36 ..............................
........................................................................

 iter      E             dE          RMSdq      gap      omega  full diag
   1    -69.4840097 -0.694840E+02  0.667E-02    3.35       0.0  T
   2    -69.4840102 -0.422280E-06  0.393E-02    3.35       1.0  T
   3    -69.4840102 -0.548566E-07  0.161E-03    3.35       9.3  T
   4    -69.4840103 -0.411086E-07  0.931E-04    3.35      16.0  T
   5    -69.4840103 -0.149809E-07  0.501E-04    3.35      29.7  T
     SCC iter.                  ...        0 min,  0.012 sec
     gradient                   ...        0 min,  0.006 sec
 * total energy  :   -68.7141494 Eh     change       -0.4910178E-04 Eh
   gradient norm :     0.0024194 Eh/α   predicted    -0.3697443E-04 ( -24.70%)
   displ. norm   :     0.2079394 α      lambda       -0.3880960E-04
   maximum displ.:     0.1075557 α      in ANC's #1, #6, #4, ...

........................................................................
.............................. CYCLE   37 ..............................
........................................................................

 iter      E             dE          RMSdq      gap      omega  full diag
   1    -69.4835641 -0.694836E+02  0.575E-02    3.35       0.0  T
   2    -69.4835644 -0.348988E-06  0.339E-02    3.35       1.0  T
   3    -69.4835644 -0.940709E-08  0.159E-03    3.35       9.4  T
   4    -69.4835645 -0.561257E-07  0.906E-04    3.35      16.5  T
   5    -69.4835645 -0.209998E-07  0.430E-04    3.35      34.6  T
     SCC iter.                  ...        0 min,  0.012 sec
     gradient                   ...        0 min,  0.005 sec
 * total energy  :   -68.7141775 Eh     change       -0.2807647E-04 Eh
   gradient norm :     0.0025189 Eh/α   predicted    -0.2024469E-04 ( -27.89%)
   displ. norm   :     0.1866100 α      lambda       -0.3230202E-04
   maximum displ.:     0.1003004 α      in ANC's #1, #6, #4, ...

........................................................................
.............................. CYCLE   38 ..............................
........................................................................

 iter      E             dE          RMSdq      gap      omega  full diag
   1    -69.4840600 -0.694841E+02  0.473E-02    3.34       0.0  T
   2    -69.4840602 -0.203281E-06  0.278E-02    3.34       1.0  T
   3    -69.4840599  0.308331E-06  0.318E-03    3.34       4.7  T
   4    -69.4840603 -0.385176E-06  0.765E-04    3.34      19.5  T
   5    -69.4840603 -0.122821E-07  0.378E-04    3.34      39.5  T
     SCC iter.                  ...        0 min,  0.012 sec
     gradient                   ...        0 min,  0.005 sec
 * total energy  :   -68.7142010 Eh     change       -0.2356386E-04 Eh
   gradient norm :     0.0019507 Eh/α   predicted    -0.1671847E-04 ( -29.05%)
   displ. norm   :     0.3415791 α      lambda       -0.3093938E-04
   maximum displ.:     0.1812443 α      in ANC's #1, #6, #4, ...

........................................................................
.............................. CYCLE   39 ..............................
........................................................................

 iter      E             dE          RMSdq      gap      omega  full diag
   1    -69.4836104 -0.694836E+02  0.971E-02    3.32       0.0  T
   2    -69.4836112 -0.804513E-06  0.572E-02    3.32       1.0  T
   3    -69.4836110  0.209105E-06  0.381E-03    3.32       3.9  T
   4    -69.4836115 -0.486174E-06  0.163E-03    3.32       9.1  T
   5    -69.4836115 -0.511774E-07  0.879E-04    3.32      17.0  T
   6    -69.4836115 -0.601229E-08  0.252E-04    3.32      59.1  T
     SCC iter.                  ...        0 min,  0.014 sec
     gradient                   ...        0 min,  0.005 sec
 * total energy  :   -68.7142259 Eh     change       -0.2486441E-04 Eh
   gradient norm :     0.0031393 Eh/α   predicted    -0.1627643E-04 ( -34.54%)
   displ. norm   :     0.1004521 α      lambda       -0.2599309E-04
   maximum displ.:     0.0612834 α      in ANC's #1, #3, #4, ...

........................................................................
.............................. CYCLE   40 ..............................
........................................................................

 iter      E             dE          RMSdq      gap      omega  full diag
   1    -69.4855370 -0.694855E+02  0.214E-02    3.33       0.0  T
   2    -69.4855371 -0.147399E-06  0.126E-02    3.33       1.2  T
   3    -69.4855365  0.663312E-06  0.435E-03    3.33       3.4  T
   4    -69.4855372 -0.737773E-06  0.650E-04    3.33      22.9  T
   5    -69.4855372 -0.118047E-07  0.226E-04    3.33      65.8  T
     SCC iter.                  ...        0 min,  0.012 sec
     gradient                   ...        0 min,  0.006 sec
 * total energy  :   -68.7142401 Eh     change       -0.1419474E-04 Eh
   gradient norm :     0.0023753 Eh/α   predicted    -0.1313156E-04 (  -7.49%)
   displ. norm   :     0.1446342 α      lambda       -0.2193097E-04
   maximum displ.:     0.0839368 α      in ANC's #1, #3, #6, ...

........................................................................
.............................. CYCLE   41 ..............................
........................................................................

 iter      E             dE          RMSdq      gap      omega  full diag
   1    -69.4852245 -0.694852E+02  0.415E-02    3.33       0.0  T
   2    -69.4852247 -0.171437E-06  0.244E-02    3.33       1.0  T
   3    -69.4852244  0.274157E-06  0.301E-03    3.33       5.0  T
   4    -69.4852248 -0.342823E-06  0.720E-04    3.33      20.7  T
   5    -69.4852248 -0.890103E-08  0.358E-04    3.33      41.6  T
     SCC iter.                  ...        0 min,  0.012 sec
     gradient                   ...        0 min,  0.006 sec
 * total energy  :   -68.7142555 Eh     change       -0.1546464E-04 Eh
   gradient norm :     0.0022617 Eh/α   predicted    -0.1119789E-04 ( -27.59%)
   displ. norm   :     0.1137816 α      lambda       -0.2023265E-04
   maximum displ.:     0.0696374 α      in ANC's #1, #3, #4, ...

........................................................................
.............................. CYCLE   42 ..............................
........................................................................

 iter      E             dE          RMSdq      gap      omega  full diag
   1    -69.4852436 -0.694852E+02  0.289E-02    3.33       0.0  T
   2    -69.4852437 -0.124449E-06  0.170E-02    3.33       1.0  T
   3    -69.4852436  0.873577E-07  0.179E-03    3.33       8.3  T
   4    -69.4852438 -0.115573E-06  0.706E-04    3.33      21.1  T
   5    -69.4852438 -0.125423E-07  0.299E-04    3.33      49.9  T
     SCC iter.                  ...        0 min,  0.011 sec
     gradient                   ...        0 min,  0.005 sec
 * total energy  :   -68.7142708 Eh     change       -0.1524411E-04 Eh
   gradient norm :     0.0014096 Eh/α   predicted    -0.1024947E-04 ( -32.76%)
   displ. norm   :     0.1503706 α      lambda       -0.1538170E-04
   maximum displ.:     0.0980566 α      in ANC's #1, #3, #2, ...
 * RMSD in coord.:     0.5395712 α      energy gain  -0.1449422E-02 Eh

generating ANC from exact Hessian ...
Using Lindh-Hessian (1995)
 Shifting diagonal of input Hessian by   9.872846180986135E-003
 Lowest  eigenvalues of input Hessian
    0.000000    0.000000    0.000000    0.000000    0.000000    0.000000
    0.010000    0.010026    0.010172    0.010317    0.010510    0.011086
    0.011864    0.012596    0.012916    0.013284    0.014420    0.014643
 Highest eigenvalues
    1.763547    1.821934    1.957217    2.029226    2.394609    2.400707
 

........................................................................
.............................. CYCLE   43 ..............................
........................................................................

 iter      E             dE          RMSdq      gap      omega  full diag
   1    -69.4853459 -0.694853E+02  0.340E-02    3.33       0.0  T
   2    -69.4853463 -0.318609E-06  0.200E-02    3.33       1.0  T
   3    -69.4853460  0.230153E-06  0.271E-03    3.33       5.5  T
   4    -69.4853463 -0.257150E-06  0.112E-03    3.33      13.4  T
   5    -69.4853463 -0.390646E-07  0.339E-04    3.33      44.0  T
   6    -69.4853463 -0.557705E-09  0.171E-04    3.33      87.1  T
     SCC iter.                  ...        0 min,  0.013 sec
     gradient                   ...        0 min,  0.006 sec
 * total energy  :   -68.7142875 Eh     change       -0.1674132E-04 Eh
   gradient norm :     0.0020078 Eh/α   predicted     0.0000000E+00 (-100.00%)
   displ. norm   :     0.0194268 α      lambda       -0.9549934E-05
   maximum displ.:     0.0106955 α      in ANC's #1, #7, #5, ...

........................................................................
.............................. CYCLE   44 ..............................
........................................................................

 iter      E             dE          RMSdq      gap      omega  full diag
   1    -69.4850944 -0.694851E+02  0.606E-03    3.33       0.0  T
   2    -69.4850945 -0.282475E-07  0.358E-03    3.33       4.2  T
   3    -69.4850945  0.682323E-08  0.629E-04    3.33      23.7  T
   4    -69.4850945 -0.929451E-08  0.254E-04    3.33      58.7  T
     SCC iter.                  ...        0 min,  0.009 sec
     gradient                   ...        0 min,  0.005 sec
 * total energy  :   -68.7142952 Eh     change       -0.7663065E-05 Eh
   gradient norm :     0.0009049 Eh/α   predicted    -0.4948137E-05 ( -35.43%)
   displ. norm   :     0.0761580 α      lambda       -0.1212830E-04
   maximum displ.:     0.0419926 α      in ANC's #1, #7, #5, ...

........................................................................
.............................. CYCLE   45 ..............................
........................................................................

 iter      E             dE          RMSdq      gap      omega  full diag
   1    -69.4846163 -0.694846E+02  0.201E-02    3.33       0.0  T
   2    -69.4846165 -0.220131E-06  0.118E-02    3.33       1.3  T
   3    -69.4846164  0.139951E-06  0.235E-03    3.33       6.4  T
   4    -69.4846165 -0.161417E-06  0.891E-04    3.33      16.7  T
   5    -69.4846166 -0.249897E-07  0.325E-04    3.33      45.8  T
     SCC iter.                  ...        0 min,  0.010 sec
     gradient                   ...        0 min,  0.005 sec
 * total energy  :   -68.7143044 Eh     change       -0.9193329E-05 Eh
   gradient norm :     0.0020793 Eh/α   predicted    -0.7057520E-05 ( -23.23%)
   displ. norm   :     0.0309389 α      lambda       -0.7863165E-05
   maximum displ.:     0.0175175 α      in ANC's #1, #7, #5, ...

........................................................................
.............................. CYCLE   46 ..............................
........................................................................

 iter      E             dE          RMSdq      gap      omega  full diag
   1    -69.4847373 -0.694847E+02  0.861E-03    3.33       0.0  T
   2    -69.4847373 -0.110486E-07  0.513E-03    3.33       2.9  T
   3    -69.4847373  0.189878E-08  0.423E-04    3.33      35.3  T
   4    -69.4847373 -0.488306E-08  0.227E-04    3.33      65.6  T
     SCC iter.                  ...        0 min,  0.008 sec
     gradient                   ...        0 min,  0.006 sec
 * total energy  :   -68.7143106 Eh     change       -0.6264408E-05 Eh
   gradient norm :     0.0017817 Eh/α   predicted    -0.3935968E-05 ( -37.17%)
   displ. norm   :     0.1160602 α      lambda       -0.1629852E-04
   maximum displ.:     0.0642740 α      in ANC's #1, #7, #5, ...

........................................................................
.............................. CYCLE   47 ..............................
........................................................................

 iter      E             dE          RMSdq      gap      omega  full diag
   1    -69.4852158 -0.694852E+02  0.297E-02    3.33       0.0  T
   2    -69.4852159 -0.107518E-06  0.176E-02    3.33       1.0  T
   3    -69.4852159  0.220008E-07  0.132E-03    3.33      11.3  T
   4    -69.4852160 -0.517047E-07  0.700E-04    3.33      21.3  T
   5    -69.4852160 -0.965930E-08  0.302E-04    3.33      49.3  T
     SCC iter.                  ...        0 min,  0.010 sec
     gradient                   ...        0 min,  0.005 sec
 * total energy  :   -68.7143268 Eh     change       -0.1617508E-04 Eh
   gradient norm :     0.0012581 Eh/α   predicted    -0.8229022E-05 ( -49.13%)
   displ. norm   :     0.1226650 α      lambda       -0.1102276E-04
   maximum displ.:     0.0688658 α      in ANC's #1, #7, #5, ...

........................................................................
.............................. CYCLE   48 ..............................
........................................................................

 iter      E             dE          RMSdq      gap      omega  full diag
   1    -69.4852007 -0.694852E+02  0.293E-02    3.33       0.0  T
   2    -69.4852008 -0.742189E-07  0.173E-02    3.34       1.0  T
   3    -69.4852008  0.138292E-07  0.126E-03    3.34      11.8  T
   4    -69.4852008 -0.443746E-07  0.587E-04    3.34      25.4  T
   5    -69.4852008 -0.492706E-08  0.264E-04    3.34      56.4  T
     SCC iter.                  ...        0 min,  0.010 sec
     gradient                   ...        0 min,  0.006 sec
 * total energy  :   -68.7143404 Eh     change       -0.1356296E-04 Eh
   gradient norm :     0.0012474 Eh/α   predicted    -0.5549965E-05 ( -59.08%)
   displ. norm   :     0.1822870 α      lambda       -0.1429417E-04
   maximum displ.:     0.1027223 α      in ANC's #1, #5, #3, ...

........................................................................
.............................. CYCLE   49 ..............................
........................................................................

 iter      E             dE          RMSdq      gap      omega  full diag
   1    -69.4849934 -0.694850E+02  0.421E-02    3.34       0.0  T
   2    -69.4849936 -0.148465E-06  0.250E-02    3.34       1.0  T
   3    -69.4849935  0.275928E-07  0.178E-03    3.34       8.4  T
   4    -69.4849936 -0.868519E-07  0.814E-04    3.34      18.3  T
   5    -69.4849936 -0.975879E-08  0.371E-04    3.34      40.2  T
     SCC iter.                  ...        0 min,  0.010 sec
     gradient                   ...        0 min,  0.005 sec
 * total energy  :   -68.7143561 Eh     change       -0.1571946E-04 Eh
   gradient norm :     0.0008678 Eh/α   predicted    -0.7254419E-05 ( -53.85%)
   displ. norm   :     0.1745364 α      lambda       -0.1120463E-04
   maximum displ.:     0.1018065 α      in ANC's #1, #3, #5, ...

........................................................................
.............................. CYCLE   50 ..............................
........................................................................

 iter      E             dE          RMSdq      gap      omega  full diag
   1    -69.4849137 -0.694849E+02  0.350E-02    3.35       0.0  T
   2    -69.4849138 -0.125237E-06  0.208E-02    3.35       1.0  T
   3    -69.4849137  0.714271E-07  0.192E-03    3.35       7.8  T
   4    -69.4849138 -0.116629E-06  0.739E-04    3.35      20.2  T
   5    -69.4849138 -0.891374E-08  0.350E-04    3.35      42.6  T
     SCC iter.                  ...        0 min,  0.010 sec
     gradient                   ...        0 min,  0.005 sec
 * total energy  :   -68.7143666 Eh     change       -0.1050256E-04 Eh
   gradient norm :     0.0009063 Eh/α   predicted    -0.5679468E-05 ( -45.92%)
   displ. norm   :     0.1174458 α      lambda       -0.7599216E-05
   maximum displ.:     0.0713227 α      in ANC's #1, #3, #5, ...

........................................................................
.............................. CYCLE   51 ..............................
........................................................................

 iter      E             dE          RMSdq      gap      omega  full diag
   1    -69.4850117 -0.694850E+02  0.188E-02    3.35       0.0  T
   2    -69.4850117 -0.545897E-07  0.112E-02    3.36       1.3  T
   3    -69.4850117  0.109800E-07  0.963E-04    3.36      15.5  T
   4    -69.4850117 -0.242923E-07  0.479E-04    3.36      31.1  T
     SCC iter.                  ...        0 min,  0.009 sec
     gradient                   ...        0 min,  0.005 sec
 * total energy  :   -68.7143743 Eh     change       -0.7650741E-05 Eh
   gradient norm :     0.0008871 Eh/α   predicted    -0.3824514E-05 ( -50.01%)
   displ. norm   :     0.1117540 α      lambda       -0.8366094E-05
   maximum displ.:     0.0689476 α      in ANC's #1, #3, #5, ...

........................................................................
.............................. CYCLE   52 ..............................
........................................................................

 iter      E             dE          RMSdq      gap      omega  full diag
   1    -69.4851788 -0.694852E+02  0.154E-02    3.36       0.0  T
   2    -69.4851789 -0.551041E-07  0.916E-03    3.36       1.6  T
   3    -69.4851789  0.371405E-08  0.832E-04    3.36      17.9  T
   4    -69.4851789 -0.165398E-07  0.454E-04    3.36      32.9  T
     SCC iter.                  ...        0 min,  0.009 sec
     gradient                   ...        0 min,  0.004 sec
 * total energy  :   -68.7143827 Eh     change       -0.8409709E-05 Eh
   gradient norm :     0.0007360 Eh/α   predicted    -0.4209672E-05 ( -49.94%)
   displ. norm   :     0.1033367 α      lambda       -0.6863583E-05
   maximum displ.:     0.0653556 α      in ANC's #1, #3, #2, ...

........................................................................
.............................. CYCLE   53 ..............................
........................................................................

 iter      E             dE          RMSdq      gap      omega  full diag
   1    -69.4851482 -0.694851E+02  0.147E-02    3.36       0.0  T
   2    -69.4851483 -0.478993E-07  0.868E-03    3.36       1.7  T
   3    -69.4851483  0.641852E-08  0.858E-04    3.36      17.4  T
   4    -69.4851483 -0.189471E-07  0.453E-04    3.36      32.9  T
     SCC iter.                  ...        0 min,  0.008 sec
     gradient                   ...        0 min,  0.005 sec
 * total energy  :   -68.7143909 Eh     change       -0.8191104E-05 Eh
   gradient norm :     0.0005729 Eh/α   predicted    -0.3450962E-05 ( -57.87%)
   displ. norm   :     0.1166631 α      lambda       -0.7707202E-05
   maximum displ.:     0.0747148 α      in ANC's #1, #2, #3, ...

........................................................................
.............................. CYCLE   54 ..............................
........................................................................

 iter      E             dE          RMSdq      gap      omega  full diag
   1    -69.4850613 -0.694851E+02  0.223E-02    3.36       0.0  T
   2    -69.4850613 -0.693467E-07  0.132E-02    3.36       1.1  T
   3    -69.4850613  0.334058E-07  0.133E-03    3.36      11.2  T
   4    -69.4850614 -0.589934E-07  0.542E-04    3.36      27.5  T
   5    -69.4850614 -0.492753E-08  0.280E-04    3.36      53.3  T
     SCC iter.                  ...        0 min,  0.010 sec
     gradient                   ...        0 min,  0.006 sec
 * total energy  :   -68.7143994 Eh     change       -0.8557585E-05 Eh
   gradient norm :     0.0006440 Eh/α   predicted    -0.3881723E-05 ( -54.64%)
   displ. norm   :     0.1137707 α      lambda       -0.7132456E-05
   maximum displ.:     0.0732608 α      in ANC's #1, #2, #3, ...

........................................................................
.............................. CYCLE   55 ..............................
........................................................................

 iter      E             dE          RMSdq      gap      omega  full diag
   1    -69.4849795 -0.694850E+02  0.259E-02    3.35       0.0  T
   2    -69.4849795 -0.792212E-07  0.153E-02    3.36       1.0  T
   3    -69.4849795 -0.104744E-07  0.900E-04    3.36      16.6  T
   4    -69.4849796 -0.183807E-07  0.486E-04    3.36      30.7  T
     SCC iter.                  ...        0 min,  0.008 sec
     gradient                   ...        0 min,  0.005 sec
 * total energy  :   -68.7144084 Eh     change       -0.8960917E-05 Eh
   gradient norm :     0.0006089 Eh/α   predicted    -0.3591361E-05 ( -59.92%)
   displ. norm   :     0.1352195 α      lambda       -0.8470799E-05
   maximum displ.:     0.0864311 α      in ANC's #1, #2, #3, ...

........................................................................
.............................. CYCLE   56 ..............................
........................................................................

 iter      E             dE          RMSdq      gap      omega  full diag
   1    -69.4848542 -0.694849E+02  0.368E-02    3.35       0.0  T
   2    -69.4848543 -0.108120E-06  0.217E-02    3.35       1.0  T
   3    -69.4848543  0.713569E-07  0.190E-03    3.35       7.9  T
   4    -69.4848544 -0.130074E-06  0.634E-04    3.35      23.5  T
   5    -69.4848544 -0.373068E-08  0.313E-04    3.35      47.6  T
     SCC iter.                  ...        0 min,  0.010 sec
     gradient                   ...        0 min,  0.005 sec
 * total energy  :   -68.7144193 Eh     change       -0.1093838E-04 Eh
   gradient norm :     0.0007061 Eh/α   predicted    -0.4272324E-05 ( -60.94%)
   displ. norm   :     0.1609711 α      lambda       -0.9645156E-05
   maximum displ.:     0.1035049 α      in ANC's #1, #2, #3, ...

........................................................................
.............................. CYCLE   57 ..............................
........................................................................

 iter      E             dE          RMSdq      gap      omega  full diag
   1    -69.4847704 -0.694848E+02  0.457E-02    3.35       0.0  T
   2    -69.4847706 -0.154210E-06  0.270E-02    3.35       1.0  T
   3    -69.4847705  0.103072E-06  0.226E-03    3.35       6.6  T
   4    -69.4847707 -0.189060E-06  0.746E-04    3.35      20.0  T
   5    -69.4847707 -0.427775E-08  0.361E-04    3.35      41.4  T
     SCC iter.                  ...        0 min,  0.023 sec
     gradient                   ...        0 min,  0.016 sec
 * total energy  :   -68.7144312 Eh     change       -0.1187982E-04 Eh
   gradient norm :     0.0006379 Eh/α   predicted    -0.4881540E-05 ( -58.91%)
   displ. norm   :     0.1408118 α      lambda       -0.7426391E-05
   maximum displ.:     0.0927522 α      in ANC's #1, #2, #3, ...

........................................................................
.............................. CYCLE   58 ..............................
........................................................................

 iter      E             dE          RMSdq      gap      omega  full diag
   1    -69.4848275 -0.694848E+02  0.387E-02    3.35       0.0  T
   2    -69.4848276 -0.113284E-06  0.228E-02    3.35       1.0  T
   3    -69.4848274  0.158570E-06  0.240E-03    3.35       6.2  T
   4    -69.4848276 -0.225231E-06  0.621E-04    3.35      24.0  T
   5    -69.4848276 -0.287577E-08  0.312E-04    3.35      47.7  T
     SCC iter.                  ...        0 min,  0.012 sec
     gradient                   ...        0 min,  0.005 sec
 * total energy  :   -68.7144405 Eh     change       -0.9282114E-05 Eh
   gradient norm :     0.0004715 Eh/α   predicted    -0.3749514E-05 ( -59.60%)
   displ. norm   :     0.1168530 α      lambda       -0.6094897E-05
   maximum displ.:     0.0789025 α      in ANC's #1, #2, #3, ...

........................................................................
.............................. CYCLE   59 ..............................
........................................................................

 iter      E             dE          RMSdq      gap      omega  full diag
   1    -69.4849758 -0.694850E+02  0.294E-02    3.35       0.0  T
   2    -69.4849759 -0.768902E-07  0.173E-02    3.35       1.0  T
   3    -69.4849758  0.161498E-06  0.226E-03    3.35       6.6  T
   4    -69.4849760 -0.204675E-06  0.507E-04    3.35      29.4  T
   5    -69.4849760 -0.270521E-08  0.264E-04    3.35      56.5  T
     SCC iter.                  ...        0 min,  0.011 sec
     gradient                   ...        0 min,  0.005 sec
 * total energy  :   -68.7144484 Eh     change       -0.7887444E-05 Eh
   gradient norm :     0.0003043 Eh/α   predicted    -0.3067125E-05 ( -61.11%)
   displ. norm   :     0.1200160 α      lambda       -0.6412471E-05
   maximum displ.:     0.0813161 α      in ANC's #1, #2, #3, ...

........................................................................
.............................. CYCLE   60 ..............................
........................................................................

[...]
C5-O4-C3-H27=297.06           C6-C5-O4-C3=183.07            H28-C5-O4-C3= 62.59           H29-C5-O4-C3=302.70           
C7-C6-C5-O4= 58.26            C7-C6-C5-H28=179.32           C7-C6-C5-H29=297.49           O8-C6-C5-O4=299.18            
O8-C6-C5-H28= 60.24           O8-C6-C5-H29=178.41           H30-C6-C5-O4=181.12           H30-C6-C5-H28=302.18          
H30-C6-C5-H29= 60.35          H31-C7-C6-C5=305.14           H31-C7-C6-O8= 65.95           H31-C7-C6-H30=184.35          
H32-C7-C6-C5= 64.85           H32-C7-C6-O8=185.65           H32-C7-C6-H30=304.05          H33-C7-C6-C5=185.21           
H33-C7-C6-O8=306.02           H33-C7-C6-H30= 64.42          C9-O8-C6-C5=283.55            C9-O8-C6-C7=161.84            
C9-O8-C6-H30= 41.38           O10-C9-O8-C6=358.06           C11-C9-O8-C6=178.64           
           -------------------------------------------------
          |                Final Singlepoint                |
           -------------------------------------------------

          ...................................................
          :                      SETUP                      :
          :.................................................:
          :  # basis functions                 108          :
          :  # atomic orbitals                 108          :
          :  # shells                           66          :
          :  # electrons                       120          :
          :  max. iterations                   250          :
          :  Hamiltonian                  GFN2-xTB          :
          :  restarted?                      false          :
          :  GBSA solvation                  false          :
          :  PC potential                    false          :
          :  electronic temp.          300.0000000     K    :
          :  accuracy                    1.0000000          :
          :  -> integral cutoff          0.2500000E+02      :
          :  -> integral neglect         0.1000000E-07      :
          :  -> SCF convergence          0.1000000E-05 Eh   :
          :  -> wf. convergence          0.1000000E-03 e    :
          :  Broyden damping             0.4000000          :
          :  net charge                          0          :
          :  unpaired electrons                  0          :
          ...................................................

 iter      E             dE          RMSdq      gap      omega  full diag
   1    -69.4852235 -0.694852E+02  0.653E-05    3.35       0.0  T
   2    -69.4852235 -0.116245E-10  0.408E-05    3.35     365.4  T
   3    -69.4852235  0.551381E-11  0.232E-05    3.35     643.4  T

   *** convergence criteria satisfied after 3 iterations ***

         #    Occupation            Energy/Eh            Energy/eV
      -------------------------------------------------------------
         1        2.0000           -0.7389448             -20.1077
       ...           ...                  ...                  ...
        54        2.0000           -0.4384824             -11.9317
        55        2.0000           -0.4346318             -11.8269
        56        2.0000           -0.4332923             -11.7905
        57        2.0000           -0.4134622             -11.2509
        58        2.0000           -0.4127810             -11.2323
        59        2.0000           -0.4030532             -10.9676
        60        2.0000           -0.3985156             -10.8442 (HOMO)
        61                         -0.2755785              -7.4989 (LUMO)
        62                         -0.2743309              -7.4649
        63                         -0.1646460              -4.4802
        64                         -0.1642504              -4.4695
        65                         -0.0092275              -0.2511
       ...                                ...                  ...
       108                          0.7060924              19.2138
      -------------------------------------------------------------
                  HL-Gap            0.1229371 Eh            3.3453 eV
             Fermi-level           -0.3370471 Eh           -9.1715 eV

 SCC (total)                   0 d,  0 h,  0 min,  0.023 sec
 SCC setup                      ...        0 min,  0.000 sec (  0.405%)
 Dispersion                     ...        0 min,  0.000 sec (  0.885%)
 classical contributions        ...        0 min,  0.000 sec (  0.176%)
 integral evaluation            ...        0 min,  0.001 sec (  4.736%)
 iterations                     ...        0 min,  0.014 sec ( 63.606%)
 molecular gradient             ...        0 min,  0.007 sec ( 29.360%)
 printout                       ...        0 min,  0.000 sec (  0.704%)

         :::::::::::::::::::::::::::::::::::::::::::::::::::::
         ::                     SUMMARY                     ::
         :::::::::::::::::::::::::::::::::::::::::::::::::::::
         :: total energy             -68.714533183402 Eh    ::
         :: gradient norm              0.000231593221 Eh/a0 ::
         :: HOMO-LUMO gap              3.345287554542 eV    ::
         ::.................................................::
         :: SCC energy               -69.484628697889 Eh    ::
         :: -> isotropic ES            0.127964205842 Eh    ::
         :: -> anisotropic ES          0.003701739091 Eh    ::
         :: -> anisotropic XC          0.013415282071 Eh    ::
         :: -> dispersion             -0.036053433676 Eh    ::
         :: repulsion energy           0.770095514488 Eh    ::
         :: add. restraining           0.000000000000 Eh    ::
         :: total charge              -0.000000000000 e     ::
         :::::::::::::::::::::::::::::::::::::::::::::::::::::

           -------------------------------------------------
          |                Property Printout                |
           -------------------------------------------------

    * Orbital Energies and Occupations

         #    Occupation            Energy/Eh            Energy/eV
      -------------------------------------------------------------
         1        2.0000           -0.7389448             -20.1077
       ...           ...                  ...                  ...
        48        2.0000           -0.4627722             -12.5927
        49        2.0000           -0.4614124             -12.5557
        50        2.0000           -0.4573166             -12.4442
        51        2.0000           -0.4526399             -12.3170
        52        2.0000           -0.4408645             -11.9965
        53        2.0000           -0.4396457             -11.9634
        54        2.0000           -0.4384824             -11.9317
        55        2.0000           -0.4346318             -11.8269
        56        2.0000           -0.4332923             -11.7905
        57        2.0000           -0.4134622             -11.2509
        58        2.0000           -0.4127810             -11.2323
        59        2.0000           -0.4030532             -10.9676
        60        2.0000           -0.3985156             -10.8442 (HOMO)
        61                         -0.2755785              -7.4989 (LUMO)
        62                         -0.2743309              -7.4649
        63                         -0.1646460              -4.4802
        64                         -0.1642504              -4.4695
        65                         -0.0092275              -0.2511
        66                         -0.0084369              -0.2296
        67                          0.0201101               0.5472
        68                          0.0213609               0.5813
        69                          0.0723491               1.9687
        70                          0.0744995               2.0272
        71                          0.0828330               2.2540
       ...                                ...                  ...
       108                          0.7060924              19.2138
      -------------------------------------------------------------
                  HL-Gap            0.1229371 Eh            3.3453 eV
             Fermi-level           -0.3370471 Eh           -9.1715 eV

     #   Z          covCN         q      C6AA      α(0)
     1   6 C        3.752    -0.122    22.892     6.823
     2   6 C        3.746     0.115    18.768     6.180
     3   6 C        3.707     0.080    19.381     6.293
     4   8 O        1.702    -0.303    19.047     5.892
     5   6 C        3.706     0.081    19.377     6.293
     6   6 C        3.749     0.118    18.718     6.171
     7   6 C        3.754    -0.120    22.861     6.818
     8   8 O        1.705    -0.253    18.189     5.758
     9   6 C        2.721     0.357    20.942     7.491
    10   8 O        0.857    -0.422    22.129     6.307
    11   6 C        2.887    -0.057    29.411     8.891
    12   6 C        2.838    -0.063    29.549     8.908
    13   8 O        1.702    -0.307    19.115     5.903
    14   6 C        3.697     0.083    19.365     6.295
    15   6 C        3.749     0.118    18.716     6.170
    16   6 C        3.754    -0.119    22.834     6.814
    17   8 O        1.706    -0.255    18.229     5.764
    18   6 C        2.724     0.357    20.939     7.491
    19   8 O        0.856    -0.423    22.150     6.310
    20   6 C        2.888    -0.057    29.423     8.893
    21   6 C        2.842    -0.060    29.483     8.899
    22   1 H        0.925     0.044     2.392     2.419
    23   1 H        0.925     0.052     2.295     2.369
    24   1 H        0.925     0.051     2.304     2.374
    25   1 H        0.923     0.033     2.548     2.496
    26   1 H        0.923     0.037     2.491     2.468
    27   1 H        0.923     0.023     2.685     2.563
    28   1 H        0.923     0.038     2.480     2.463
    29   1 H        0.923     0.027     2.636     2.539
    30   1 H        0.923     0.049     2.330     2.387
    31   1 H        0.925     0.077     2.010     2.217
    32   1 H        0.925     0.053     2.281     2.362
    33   1 H        0.925     0.057     2.230     2.335
    34   1 H        0.926     0.071     2.079     2.255
    35   1 H        0.926     0.062     2.175     2.306
    36   1 H        0.926     0.075     2.035     2.231
    37   1 H        0.923     0.038     2.480     2.463
    38   1 H        0.923     0.026     2.643     2.543
    39   1 H        0.923     0.047     2.358     2.401
    40   1 H        0.925     0.078     1.997     2.210
    41   1 H        0.925     0.052     2.292     2.368
    42   1 H        0.925     0.056     2.241     2.341
    43   1 H        0.926     0.066     2.127     2.281
    44   1 H        0.926     0.078     1.999     2.211
    45   1 H        0.926     0.063     2.168     2.302

 Mol. C6AA /au·bohr⁶  :      17980.775873
 Mol. C8AA /au·bohr⁸  :     395262.137122
 Mol. α(0) /au        :        201.266993


Wiberg/Mayer (AO) data.
largest (>0.10) Wiberg bond orders for each atom

 ---------------------------------------------------------------------------
     #   Z sym  total        # sym  WBO       # sym  WBO       # sym  WBO
 ---------------------------------------------------------------------------
     1   6 C    3.994 --     2 C    0.998    23 H    0.986    22 H    0.986
                            24 H    0.983
     2   6 C    3.955 --     1 C    0.998     3 C    0.983    13 O    0.973
                            25 H    0.958
     3   6 C    3.957 --     4 O    0.986     2 C    0.983    27 H    0.965
                            26 H    0.965
     4   8 O    2.078 --     5 C    0.989     3 C    0.986
     5   6 C    3.958 --     4 O    0.989     6 C    0.980    28 H    0.964
                            29 H    0.964
     6   6 C    3.933 --     7 C    1.006     5 C    0.980    30 H    0.958
                             8 O    0.935
     7   6 C    3.988 --     6 C    1.006    33 H    0.984    32 H    0.984
                            31 H    0.981
     8   8 O    2.322 --     9 C    1.133     6 C    0.935    10 O    0.173
     9   6 C    3.919 --    10 O    1.714     8 O    1.133    11 C    1.011
    10   8 O    2.023 --     9 C    1.714     8 O    0.173
    11   6 C    3.987 --    12 C    1.935     9 C    1.011    34 H    0.963
    12   6 C    3.983 --    11 C    1.935    35 H    0.975    36 H    0.971
    13   8 O    2.081 --    14 C    0.991     2 C    0.973
    14   6 C    3.957 --    13 O    0.991    15 C    0.979    37 H    0.964
                            38 H    0.963
    15   6 C    3.933 --    16 C    1.007    14 C    0.979    39 H    0.958
                            17 O    0.933
    16   6 C    3.988 --    15 C    1.007    42 H    0.984    41 H    0.984
                            40 H    0.981
    17   8 O    2.323 --    18 C    1.134    15 C    0.933    19 O    0.174
    18   6 C    3.919 --    19 O    1.713    17 O    1.134    20 C    1.009
    19   8 O    2.023 --    18 C    1.713    17 O    0.174
    20   6 C    3.987 --    21 C    1.933    18 C    1.009    43 H    0.964
    21   6 C    3.980 --    20 C    1.933    45 H    0.975    44 H    0.970
    22   1 H    0.998 --     1 C    0.986
    23   1 H    0.997 --     1 C    0.986
    24   1 H    0.997 --     1 C    0.983
    25   1 H    0.999 --     2 C    0.958
    26   1 H    0.999 --     3 C    0.965
    27   1 H    0.999 --     3 C    0.965
    28   1 H    0.999 --     5 C    0.964
    29   1 H    0.999 --     5 C    0.964
    30   1 H    0.997 --     6 C    0.958
    31   1 H    0.994 --     7 C    0.981
    32   1 H    0.996 --     7 C    0.984
    33   1 H    0.997 --     7 C    0.984
    34   1 H    0.995 --    11 C    0.963
    35   1 H    0.996 --    12 C    0.975
    36   1 H    0.994 --    12 C    0.971
    37   1 H    0.999 --    14 C    0.964
    38   1 H    0.999 --    14 C    0.963
    39   1 H    0.997 --    15 C    0.958
    40   1 H    0.994 --    16 C    0.981
    41   1 H    0.997 --    16 C    0.984
    42   1 H    0.997 --    16 C    0.984
    43   1 H    0.996 --    20 C    0.964
    44   1 H    0.994 --    21 C    0.970
    45   1 H    0.995 --    21 C    0.975
 ---------------------------------------------------------------------------

Topologies differ in total number of bonds
Writing topology from bond orders to xtbtopo.mol

molecular dipole:
                 x           y           z       tot (Debye)
 q only:        0.434       0.266       0.329
   full:        0.370       0.174       0.163       1.118
molecular quadrupole (traceless):
                xx          xy          yy          xz          yz          zz
 q only:      -12.799      15.470       5.917     -17.969       2.611       6.882
  q+dip:      -14.041      17.259       7.481     -17.825       0.665       6.560
   full:      -14.248      16.851       6.404     -17.969       2.492       7.844

           -------------------------------------------------
          |                Geometry Summary                 |
           -------------------------------------------------

      molecular mass/u    :      300.3480460
   center of mass at/Å    :       -0.0630514      -0.0131860       0.0249246
  moments of inertia/u·Å² :        0.7741646E+03   0.4780359E+04   0.4906886E+04
rotational constants/cm⁻¹ :        0.2177526E-01   0.3526436E-02   0.3435505E-02

 * 42 selected distances

     #   Z          #   Z                                           value/Å
     1   6 C        2   6 C                                       1.5293506
     2   6 C        3   6 C                                       1.5304669
     3   6 C        4   8 O                                       1.4048970
     4   8 O        5   6 C                                       1.4056444
     5   6 C        6   6 C                                       1.5333562
     6   6 C        7   6 C                                       1.5207324
     6   6 C        8   8 O                                       1.4280193
     8   8 O        9   6 C                                       1.3350622
     9   6 C       10   8 O                                       1.2090353
    11   6 C       12   6 C                                       1.3245491
     2   6 C       13   8 O                                       1.4143794
    13   8 O       14   6 C                                       1.4049799
    14   6 C       15   6 C                                       1.5337123 (max)
    15   6 C       16   6 C                                       1.5202597
    15   6 C       17   8 O                                       1.4290052
    17   8 O       18   6 C                                       1.3356420
    18   6 C       19   8 O                                       1.2082738
    20   6 C       21   6 C                                       1.3245712
     1   6 C       22   1 H                                       1.0861390
     1   6 C       23   1 H                                       1.0870728
     1   6 C       24   1 H                                       1.0870164
     2   6 C       25   1 H                                       1.1007005
     3   6 C       26   1 H                                       1.0996103
     3   6 C       27   1 H                                       1.1008122
     5   6 C       28   1 H                                       1.1003835
     5   6 C       29   1 H                                       1.1009899
     6   6 C       30   1 H                                       1.0990627
     7   6 C       31   1 H                                       1.0857633
     7   6 C       32   1 H                                       1.0858337
     7   6 C       33   1 H                                       1.0865023
    11   6 C       34   1 H                                       1.0806408
    12   6 C       35   1 H                                       1.0772244
    12   6 C       36   1 H                                       1.0768212
    14   6 C       37   1 H                                       1.0990477
    14   6 C       38   1 H                                       1.1009698
    15   6 C       39   1 H                                       1.0992718
    16   6 C       40   1 H                                       1.0856006
    16   6 C       41   1 H                                       1.0859606
    16   6 C       42   1 H                                       1.0864768
    20   6 C       43   1 H                                       1.0790700
    21   6 C       44   1 H                                       1.0781364
    21   6 C       45   1 H                                       1.0764180 (min)

 * 3 distinct bonds (by element types)

   Z      Z             #   av. dist./Å        max./Å        min./Å
   1 H    6 C          24     1.0893969     1.1009899     1.0764180
   6 C    6 C           8     1.4771248     1.5337123     1.3245491
   6 C    8 O          10     1.3574938     1.4290052     1.2082738


optimized geometry written to: xtbopt.xyz


           -------------------------------------------------
          | TOTAL ENERGY              -68.714533183402 Eh   |
          | GRADIENT NORM               0.000231593221 Eh/α |
          | HOMO-LUMO GAP               3.345287554542 eV   |
           -------------------------------------------------

------------------------------------------------------------------------
 * finished run on 2025/12/01 at 14:23:30.248     
------------------------------------------------------------------------
 total:
 * wall-time:     0 d,  0 h,  0 min,  1.929 sec
 *  cpu-time:     0 d,  0 h,  0 min, 44.125 sec
 * ratio c/w:    22.876 speedup
 SCF:
 * wall-time:     0 d,  0 h,  0 min,  0.045 sec
 *  cpu-time:     0 d,  0 h,  0 min,  1.023 sec
 * ratio c/w:    22.793 speedup
 ANC optimizer:
 * wall-time:     0 d,  0 h,  0 min,  1.871 sec
 *  cpu-time:     0 d,  0 h,  0 min, 42.888 sec
 * ratio c/w:    22.928 speedup

normal termination of xtb
