      -----------------------------------------------------------      
     |                   =====================                   |     
     |                           x T B                           |     
     |                   =====================                   |     
     |                         S. Grimme                         |     
     |          Mulliken Center for Theoretical Chemistry        |     
     |                    University of Bonn                     |     
      -----------------------------------------------------------      

   * xtb version 6.7.1 (edcfbbe) compiled by 'albert@albert-system' on 2024-07-22

   xtb is free software: you can redistribute it and/or modify it under
   the terms of the GNU Lesser General Public License as published by
   the Free Software Foundation, either version 3 of the License, or
   (at your option) any later version.
   
   xtb is distributed in the hope that it will be useful,
   but WITHOUT ANY WARRANTY; without even the implied warranty of
   MERCHANTABILITY or FITNESS FOR A PARTICULAR PURPOSE.  See the
   GNU Lesser General Public License for more details.
   
   Cite this work as:
   * C. Bannwarth, E. Caldeweyher, S. Ehlert, A. Hansen, P. Pracht,
     J. Seibert, S. Spicher, S. Grimme, WIREs Comput. Mol. Sci., 2020, 11,
     e01493. DOI: 10.1002/wcms.1493
   
   for GFN2-xTB:
   * C. Bannwarth, S. Ehlert and S. Grimme., J. Chem. Theory Comput., 2019,
     15, 1652-1671. DOI: 10.1021/acs.jctc.8b01176
   for GFN1-xTB:
   * S. Grimme, C. Bannwarth, P. Shushkov, J. Chem. Theory Comput., 2017,
     13, 1989-2009. DOI: 10.1021/acs.jctc.7b00118
   for GFN0-xTB:
   * P. Pracht, E. Caldeweyher, S. Ehlert, S. Grimme, ChemRxiv, 2019, preprint.
     DOI: 10.26434/chemrxiv.8326202.v1
   for GFN-FF:
   * S. Spicher and S. Grimme, Angew. Chem. Int. Ed., 2020, 59, 15665-15673.
     DOI: 10.1002/anie.202004239
   
   for ALPB and GBSA implicit solvation:
   * S. Ehlert, M. Stahn, S. Spicher, S. Grimme, J. Chem. Theory Comput.,
     2021, 17, 4250-4261. DOI: 10.1021/acs.jctc.1c00471
   
   for ddCOSMO and CPCM-X implicit solvation:
   * M. Stahn, S. Ehlert, S. Grimme, J. Phys. Chem. A,
     2023, XX, XXXX-XXXX. DOI: 10.1021/acs.jpca.3c04382
   
   for DFT-D4:
   * E. Caldeweyher, C. Bannwarth and S. Grimme, J. Chem. Phys., 2017,
     147, 034112. DOI: 10.1063/1.4993215
   * E. Caldeweyher, S. Ehlert, A. Hansen, H. Neugebauer, S. Spicher,
     C. Bannwarth and S. Grimme, J. Chem. Phys., 2019, 150, 154122.
     DOI: 10.1063/1.5090222
   * E. Caldeweyher, J.-M. Mewes, S. Ehlert and S. Grimme, Phys. Chem. Chem. Phys.
     2020, 22, 8499-8512. DOI: 10.1039/D0CP00502A
   
   for sTDA-xTB:
   * S. Grimme and C. Bannwarth, J. Chem. Phys., 2016, 145, 054103.
     DOI: 10.1063/1.4959605
   
   in the mass-spec context:
   * V. Asgeirsson, C. Bauer and S. Grimme, Chem. Sci., 2017, 8, 4879.
     DOI: 10.1039/c7sc00601b
   * J. Koopman and S. Grimme, ACS Omega 2019, 4, 12, 15120-15133.
     DOI: 10.1021/acsomega.9b02011
   
   for metadynamics refer to:
   * S. Grimme, J. Chem. Theory Comput., 2019, 155, 2847-2862
     DOI: 10.1021/acs.jctc.9b00143
   
   for SPH calculations refer to:
   * S. Spicher and S. Grimme, J. Chem. Theory Comput., 2021, 17, 1701-1714
     DOI: 10.1021/acs.jctc.0c01306
   
   for ONIOM refer to:
   * C. Plett, A. Katbashev, S. Ehlert, S. Grimme, M. Bursch,
     Phys. Chem. Chem. Phys., 2023, 25, 17860-17868. DOI: 10.1039/D3CP02178E
   
   for DIPRO refer to:
   * J. Kohn, N. Gildemeister, S. Grimme, D. Fazzi, A. Hansen,
     J. Chem. Phys., 2023, just accepted.
   
   for PTB refer to:
   * S. Grimme, M. Mueller, A. Hansen, J. Chem. Phys., 2023, 158, 124111.
     DOI: 10.1063/5.0137838
   
   with help from (in alphabetical order)
   P. Atkinson, C. Bannwarth, F. Bohle, G. Brandenburg, E. Caldeweyher
   M. Checinski, S. Dohm, S. Ehlert, S. Ehrlich, I. Gerasimov, C. Hölzer
   A. Katbashev, J. Kohn, J. Koopman, C. Lavigne, S. Lehtola, F. März, M. Müller,
   F. Musil, H. Neugebauer, J. Pisarek, C. Plett, P. Pracht, F. Pultar,
   J. Seibert, P. Shushkov, S. Spicher, M. Stahn, M. Steiner, T. Strunk,
   J. Stückrath, T. Rose, and J. Unsleber
   
 * started run on 2025/12/01 at 14:23:26.481     
   ID    Z sym.   atoms
    1    6 C      1-3, 5-7, 9, 11, 12, 14-16, 18, 20, 21
    2    8 O      4, 8, 10, 13, 17, 19
    3    1 H      22-45

           -------------------------------------------------
          |                Calculation Setup                |
           -------------------------------------------------

          program call               : xtb pipeline_data/3_conformer_xyz/acrylates/rdkit/ZDQNWDNMNKSMHI-FRRDWIJNSA-N_conf203.xyz --opt --gfn 2-xTB --iterations 250
          coordinate file            : pipeline_data/3_conformer_xyz/acrylates/rdkit/ZDQNWDNMNKSMHI-FRRDWIJNSA-N_conf203.xyz
          omp threads                :                    24

########################################################################
[WARNING] Please study the warnings concerning your input carefully
-1- readin_getIntValue: could not parse '2-xTB'
########################################################################

           -------------------------------------------------
          |                 G F N 2 - x T B                 |
           -------------------------------------------------

        Reference                      10.1021/acs.jctc.8b01176
      * Hamiltonian:
        H0-scaling (s, p, d)           1.850000    2.230000    2.230000
        zeta-weighting                 0.500000
      * Dispersion:
        s8                             2.700000
        a1                             0.520000
        a2                             5.000000
        s9                             5.000000
      * Repulsion:
        kExp                           1.500000    1.000000
        rExp                           1.000000
      * Coulomb:
        alpha                          2.000000
        third order                    shell-resolved
        anisotropic                    true
        a3                             3.000000
        a5                             4.000000
        cn-shift                       1.200000
        cn-exp                         4.000000
        max-rad                        5.000000

q/qsh data taken from xtbrestart
CAMM data taken from xtbrestart

          ...................................................
          :                      SETUP                      :
          :.................................................:
          :  # basis functions                 108          :
          :  # atomic orbitals                 108          :
          :  # shells                           66          :
          :  # electrons                       120          :
          :  max. iterations                   250          :
          :  Hamiltonian                  GFN2-xTB          :
          :  restarted?                       true          :
          :  GBSA solvation                  false          :
          :  PC potential                    false          :
          :  electronic temp.          300.0000000     K    :
          :  accuracy                    1.0000000          :
          :  -> integral cutoff          0.2500000E+02      :
          :  -> integral neglect         0.1000000E-07      :
          :  -> SCF convergence          0.1000000E-05 Eh   :
          :  -> wf. convergence          0.1000000E-03 e    :
          :  Broyden damping             0.4000000          :
          :  net charge                          0          :
          :  unpaired electrons                  0          :
          ...................................................

 iter      E             dE          RMSdq      gap      omega  full diag
   1    -69.3633777 -0.693634E+02  0.488E+00    3.04       0.0  T
   2    -69.3715658 -0.818815E-02  0.289E+00    3.12       1.0  T
   3    -69.3686569  0.290893E-02  0.433E-01    3.10       1.0  T
   4    -69.3740761 -0.541916E-02  0.207E-01    3.13       1.0  T
   5    -69.3747297 -0.653630E-03  0.934E-02    3.16       1.0  T
   6    -69.3747521 -0.224055E-04  0.338E-02    3.16       1.0  T
   7    -69.3747708 -0.187478E-04  0.116E-02    3.15       1.3  T
   8    -69.3747715 -0.690217E-06  0.564E-03    3.15       2.6  T
   9    -69.3747718 -0.217099E-06  0.231E-03    3.15       6.4  T
  10    -69.3747718 -0.700249E-07  0.130E-03    3.15      11.5  T
  11    -69.3747719 -0.301795E-07  0.413E-04    3.15      36.1  T
  12    -69.3747719 -0.193943E-08  0.153E-04    3.15      97.7  T

   *** convergence criteria satisfied after 12 iterations ***

         #    Occupation            Energy/Eh            Energy/eV
      -------------------------------------------------------------
         1        2.0000           -0.7341415             -19.9770
       ...           ...                  ...                  ...
        54        2.0000           -0.4391011             -11.9485
        55        2.0000           -0.4368876             -11.8883
        56        2.0000           -0.4294886             -11.6870
        57        2.0000           -0.4161526             -11.3241
        58        2.0000           -0.4146792             -11.2840
        59        2.0000           -0.4108123             -11.1788
        60        2.0000           -0.4025724             -10.9546 (HOMO)
        61                         -0.2868516              -7.8056 (LUMO)
        62                         -0.2866102              -7.7991
        63                         -0.1761172              -4.7924
        64                         -0.1756273              -4.7791
        65                         -0.0358143              -0.9746
       ...                                ...                  ...
       108                          0.6283616              17.0986
      -------------------------------------------------------------
                  HL-Gap            0.1157208 Eh            3.1489 eV
             Fermi-level           -0.3447120 Eh           -9.3801 eV

 SCC (total)                   0 d,  0 h,  0 min,  0.061 sec
 SCC setup                      ...        0 min,  0.000 sec (  0.564%)
 Dispersion                     ...        0 min,  0.001 sec (  1.780%)
 classical contributions        ...        0 min,  0.000 sec (  0.294%)
 integral evaluation            ...        0 min,  0.002 sec (  3.404%)
 iterations                     ...        0 min,  0.052 sec ( 85.267%)
 molecular gradient             ...        0 min,  0.005 sec (  8.309%)
 printout                       ...        0 min,  0.000 sec (  0.327%)

         :::::::::::::::::::::::::::::::::::::::::::::::::::::
         ::                     SUMMARY                     ::
         :::::::::::::::::::::::::::::::::::::::::::::::::::::
         :: total energy             -68.662160649727 Eh    ::
         :: gradient norm              0.190360499841 Eh/a0 ::
         :: HOMO-LUMO gap              3.148922949463 eV    ::
         ::.................................................::
         :: SCC energy               -69.374565944051 Eh    ::
         :: -> isotropic ES            0.130747344986 Eh    ::
         :: -> anisotropic ES          0.004886611759 Eh    ::
         :: -> anisotropic XC          0.015000760293 Eh    ::
         :: -> dispersion             -0.034318975061 Eh    ::
         :: repulsion energy           0.712405294323 Eh    ::
         :: add. restraining           0.000000000000 Eh    ::
         :: total charge               0.000000000000 e     ::
         :::::::::::::::::::::::::::::::::::::::::::::::::::::

      ----------------------------------------------------------- 
     |                   =====================                   |
     |                        A N C O P T                        |
     |                   =====================                   |
     |               Approximate Normal Coordinate               |
     |                Rational Function Optimizer                |
      ----------------------------------------------------------- 
      ----------------------------------------------------------- 
     |                   =====================                   |
     |                        A N C O P T                        |
     |                   =====================                   |
     |               Approximate Normal Coordinate               |
     |                Rational Function Optimizer                |
      ----------------------------------------------------------- 

          ...................................................
          :                      SETUP                      :
          :.................................................:
          :   optimization level            normal          :
          :   max. optcycles                   200          :
          :   ANC micro-cycles                  20          :
          :   degrees of freedom               129          :
          :.................................................:
          :   RF solver                   davidson          :
          :   write xtbopt.log                true          :
          :   linear?                        false          :
          :   energy convergence         0.5000000E-05 Eh   :
          :   grad. convergence          0.1000000E-02 Eh/α :
          :   maxmium RF displ.          1.0000000          :
          :   Hlow (freq-cutoff)         0.1000000E-01      :
          :   Hmax (freq-cutoff)         5.0000000          :
          :   S6 in model hess.         20.0000000          :
          ...................................................

generating ANC from exact Hessian ...
Using Lindh-Hessian (1995)
 Shifting diagonal of input Hessian by   9.873442177479092E-003
 Lowest  eigenvalues of input Hessian
    0.000000    0.000000    0.000000    0.000000    0.000000    0.000000
    0.010000    0.010052    0.010135    0.010358    0.010762    0.011011
    0.011463    0.011893    0.012609    0.013756    0.013959    0.014929
 Highest eigenvalues
    1.740695    1.741847    1.930423    1.977918    2.114073    2.130912
 

........................................................................
.............................. CYCLE    1 ..............................
........................................................................

 iter      E             dE          RMSdq      gap      omega  full diag
   1    -69.3747719 -0.693748E+02  0.629E-05    3.15       0.0  T
   2    -69.3747719 -0.373319E-10  0.376E-05    3.15     395.9  T
   3    -69.3747719 -0.121361E-10  0.228E-05    3.15     652.7  T
     SCC iter.                  ...        0 min,  0.007 sec
     gradient                   ...        0 min,  0.004 sec
 * total energy  :   -68.6621606 Eh     change       -0.1724203E-09 Eh
   gradient norm :     0.1903590 Eh/α   predicted     0.0000000E+00 (-100.00%)
   displ. norm   :     0.4133876 α      lambda       -0.4264238E-01
   maximum displ.:     0.1437606 α      in ANC's #30, #15, #21, ...

........................................................................
.............................. CYCLE    2 ..............................
........................................................................

 iter      E             dE          RMSdq      gap      omega  full diag
   1    -69.4404182 -0.694404E+02  0.266E-01    3.42       0.0  T
   2    -69.4409684 -0.550168E-03  0.164E-01    3.35       1.0  T
   3    -69.4409260  0.424209E-04  0.831E-02    3.33       1.0  T
   4    -69.4409838 -0.578457E-04  0.385E-02    3.32       1.0  T
   5    -69.4410330 -0.492073E-04  0.920E-03    3.32       1.6  T
   6    -69.4410344 -0.141879E-05  0.470E-03    3.32       3.2  T
   7    -69.4410346 -0.151980E-06  0.154E-03    3.32       9.7  T
   8    -69.4410346 -0.908209E-08  0.436E-04    3.32      34.2  T
   9    -69.4410346 -0.106790E-08  0.194E-04    3.32      76.9  T
     SCC iter.                  ...        0 min,  0.020 sec
     gradient                   ...        0 min,  0.004 sec
 * total energy  :   -68.6922725 Eh     change       -0.3011181E-01 Eh
   gradient norm :     0.0753623 Eh/α   predicted    -0.2500878E-01 ( -16.95%)
   displ. norm   :     0.4866036 α      lambda       -0.1627575E-01
   maximum displ.:     0.2223790 α      in ANC's #30, #21, #15, ...

........................................................................
.............................. CYCLE    3 ..............................
........................................................................

 iter      E             dE          RMSdq      gap      omega  full diag
   1    -69.4744541 -0.694745E+02  0.208E-01    3.50       0.0  T
   2    -69.4746989 -0.244873E-03  0.125E-01    3.46       1.0  T
   3    -69.4746651  0.338421E-04  0.562E-02    3.43       1.0  T
   4    -69.4746966 -0.315415E-04  0.270E-02    3.43       1.0  T
   5    -69.4747220 -0.253641E-04  0.547E-03    3.43       2.7  T
   6    -69.4747224 -0.418482E-06  0.247E-03    3.43       6.0  T
   7    -69.4747225 -0.510541E-07  0.942E-04    3.43      15.8  T
   8    -69.4747225 -0.324344E-08  0.304E-04    3.43      49.0  T
     SCC iter.                  ...        0 min,  0.017 sec
     gradient                   ...        0 min,  0.004 sec
 * total energy  :   -68.7022611 Eh     change       -0.9988621E-02 Eh
   gradient norm :     0.0244561 Eh/α   predicted    -0.1006479E-01 (   0.76%)
   displ. norm   :     0.4564743 α      lambda       -0.4937087E-02
   maximum displ.:     0.2051929 α      in ANC's #15, #21, #13, ...

........................................................................
.............................. CYCLE    4 ..............................
........................................................................

 iter      E             dE          RMSdq      gap      omega  full diag
   1    -69.4740090 -0.694740E+02  0.112E-01    3.45       0.0  T
   2    -69.4740261 -0.171205E-04  0.667E-02    3.44       1.0  T
   3    -69.4739977  0.284191E-04  0.337E-02    3.43       1.0  T
   4    -69.4740304 -0.327127E-04  0.678E-03    3.43       2.2  T
   5    -69.4740317 -0.132198E-05  0.174E-03    3.43       8.6  T
   6    -69.4740317 -0.289325E-07  0.772E-04    3.43      19.3  T
   7    -69.4740317 -0.280480E-08  0.318E-04    3.43      46.9  T
     SCC iter.                  ...        0 min,  0.015 sec
     gradient                   ...        0 min,  0.004 sec
 * total energy  :   -68.7058939 Eh     change       -0.3632792E-02 Eh
   gradient norm :     0.0149366 Eh/α   predicted    -0.2983090E-02 ( -17.88%)
   displ. norm   :     0.5259837 α      lambda       -0.3345849E-02
   maximum displ.:     0.2177211 α      in ANC's #13, #15, #21, ...

........................................................................
.............................. CYCLE    5 ..............................
........................................................................

 iter      E             dE          RMSdq      gap      omega  full diag
   1    -69.4708900 -0.694709E+02  0.997E-02    3.44       0.0  T
   2    -69.4709052 -0.152391E-04  0.594E-02    3.44       1.0  T
   3    -69.4708961  0.909555E-05  0.199E-02    3.43       1.0  T
   4    -69.4709054 -0.922732E-05  0.772E-03    3.43       1.9  T
   5    -69.4709073 -0.192602E-05  0.153E-03    3.43       9.7  T
   6    -69.4709073 -0.101140E-07  0.663E-04    3.43      22.5  T
   7    -69.4709073 -0.246040E-08  0.261E-04    3.43      57.1  T
     SCC iter.                  ...        0 min,  0.016 sec
     gradient                   ...        0 min,  0.004 sec
 * total energy  :   -68.7081418 Eh     change       -0.2247964E-02 Eh
   gradient norm :     0.0121536 Eh/α   predicted    -0.2135776E-02 (  -4.99%)
   displ. norm   :     0.4394210 α      lambda       -0.1769583E-02
   maximum displ.:     0.2198775 α      in ANC's #10, #13, #21, ...

........................................................................
.............................. CYCLE    6 ..............................
........................................................................

 iter      E             dE          RMSdq      gap      omega  full diag
   1    -69.4710874 -0.694711E+02  0.828E-02    3.45       0.0  T
   2    -69.4710926 -0.514375E-05  0.494E-02    3.44       1.0  T
   3    -69.4710915  0.106716E-05  0.803E-03    3.45       1.9  T
   4    -69.4710929 -0.135206E-05  0.378E-03    3.45       3.9  T
   5    -69.4710933 -0.408319E-06  0.136E-03    3.45      11.0  T
   6    -69.4710933 -0.180390E-07  0.669E-04    3.45      22.3  T
   7    -69.4710933 -0.357019E-08  0.194E-04    3.45      76.9  T
     SCC iter.                  ...        0 min,  0.016 sec
     gradient                   ...        0 min,  0.005 sec
 * total energy  :   -68.7092583 Eh     change       -0.1116497E-02 Eh
   gradient norm :     0.0126806 Eh/α   predicted    -0.1055639E-02 (  -5.45%)
   displ. norm   :     0.3332377 α      lambda       -0.1013245E-02
   maximum displ.:     0.1731221 α      in ANC's #10, #13, #19, ...

........................................................................
.............................. CYCLE    7 ..............................
........................................................................

 iter      E             dE          RMSdq      gap      omega  full diag
   1    -69.4740311 -0.694740E+02  0.584E-02    3.44       0.0  T
   2    -69.4740343 -0.322846E-05  0.346E-02    3.44       1.0  T
   3    -69.4740334  0.931365E-06  0.723E-03    3.45       2.1  T
   4    -69.4740345 -0.106497E-05  0.313E-03    3.45       4.8  T
   5    -69.4740348 -0.305242E-06  0.962E-04    3.45      15.5  T
   6    -69.4740348 -0.600939E-08  0.444E-04    3.45      33.6  T
     SCC iter.                  ...        0 min,  0.013 sec
     gradient                   ...        0 min,  0.004 sec
 * total energy  :   -68.7100171 Eh     change       -0.7587349E-03 Eh
   gradient norm :     0.0093451 Eh/α   predicted    -0.5628973E-03 ( -25.81%)
   displ. norm   :     0.3924818 α      lambda       -0.9612808E-03
   maximum displ.:     0.2165153 α      in ANC's #10, #13, #19, ...

........................................................................
.............................. CYCLE    8 ..............................
........................................................................

 iter      E             dE          RMSdq      gap      omega  full diag
   1    -69.4782001 -0.694782E+02  0.678E-02    3.43       0.0  T
   2    -69.4782032 -0.311425E-05  0.403E-02    3.44       1.0  T
   3    -69.4782010  0.217886E-05  0.927E-03    3.44       1.6  T
   4    -69.4782034 -0.235511E-05  0.346E-03    3.44       4.3  T
   5    -69.4782038 -0.393799E-06  0.927E-04    3.44      16.1  T
   6    -69.4782038 -0.551802E-08  0.422E-04    3.44      35.4  T
     SCC iter.                  ...        0 min,  0.013 sec
     gradient                   ...        0 min,  0.005 sec
 * total energy  :   -68.7107354 Eh     change       -0.7183562E-03 Eh
   gradient norm :     0.0076803 Eh/α   predicted    -0.5546804E-03 ( -22.78%)
   displ. norm   :     0.4236500 α      lambda       -0.7661993E-03
   maximum displ.:     0.2228763 α      in ANC's #10, #13, #19, ...

........................................................................
.............................. CYCLE    9 ..............................
........................................................................

 iter      E             dE          RMSdq      gap      omega  full diag
   1    -69.4797236 -0.694797E+02  0.721E-02    3.43       0.0  T
   2    -69.4797257 -0.207284E-05  0.430E-02    3.44       1.0  T
   3    -69.4797241  0.157784E-05  0.791E-03    3.44       1.9  T
   4    -69.4797260 -0.186451E-05  0.284E-03    3.44       5.2  T
   5    -69.4797262 -0.227882E-06  0.101E-03    3.44      14.8  T
   6    -69.4797262 -0.915803E-08  0.409E-04    3.44      36.4  T
   7    -69.4797262 -0.860538E-09  0.134E-04    3.44     111.0  T
     SCC iter.                  ...        0 min,  0.016 sec
     gradient                   ...        0 min,  0.005 sec
 * total energy  :   -68.7112776 Eh     change       -0.5421815E-03 Eh
   gradient norm :     0.0082895 Eh/α   predicted    -0.4518708E-03 ( -16.66%)
   displ. norm   :     0.3651263 α      lambda       -0.5846970E-03
   maximum displ.:     0.1627342 α      in ANC's #10, #8, #15, ...

........................................................................
.............................. CYCLE   10 ..............................
........................................................................

 iter      E             dE          RMSdq      gap      omega  full diag
   1    -69.4825655 -0.694826E+02  0.658E-02    3.44       0.0  T
   2    -69.4825677 -0.219834E-05  0.391E-02    3.44       1.0  T
   3    -69.4825666  0.105092E-05  0.710E-03    3.44       2.1  T
   4    -69.4825679 -0.123916E-05  0.293E-03    3.44       5.1  T
   5    -69.4825681 -0.257310E-06  0.102E-03    3.44      14.6  T
   6    -69.4825681 -0.662655E-08  0.382E-04    3.44      39.0  T
   7    -69.4825681 -0.133720E-08  0.141E-04    3.44     105.6  T
     SCC iter.                  ...        0 min,  0.016 sec
     gradient                   ...        0 min,  0.004 sec
 * total energy  :   -68.7116490 Eh     change       -0.3714295E-03 Eh
   gradient norm :     0.0061619 Eh/α   predicted    -0.3313265E-03 ( -10.80%)
   displ. norm   :     0.3266236 α      lambda       -0.3704566E-03
   maximum displ.:     0.1585876 α      in ANC's #19, #8, #10, ...

........................................................................
.............................. CYCLE   11 ..............................
........................................................................

 iter      E             dE          RMSdq      gap      omega  full diag
   1    -69.4799609 -0.694800E+02  0.642E-02    3.44       0.0  T
   2    -69.4799626 -0.166733E-05  0.382E-02    3.44       1.0  T
   3    -69.4799624  0.199662E-06  0.457E-03    3.43       3.3  T
   4    -69.4799628 -0.403928E-06  0.246E-03    3.43       6.1  T
   5    -69.4799630 -0.153187E-06  0.101E-03    3.44      14.8  T
   6    -69.4799630 -0.327732E-08  0.317E-04    3.44      47.0  T
   7    -69.4799630 -0.146450E-08  0.961E-05    3.44     155.1  T
     SCC iter.                  ...        0 min,  0.029 sec
     gradient                   ...        0 min,  0.007 sec
 * total energy  :   -68.7118620 Eh     change       -0.2130071E-03 Eh
   gradient norm :     0.0086526 Eh/α   predicted    -0.2049921E-03 (  -3.76%)
   displ. norm   :     0.2457902 α      lambda       -0.4581858E-03
   maximum displ.:     0.1120020 α      in ANC's #15, #8, #19, ...

........................................................................
.............................. CYCLE   12 ..............................
........................................................................

 iter      E             dE          RMSdq      gap      omega  full diag
   1    -69.4850763 -0.694851E+02  0.669E-02    3.44       0.0  T
   2    -69.4850819 -0.554941E-05  0.391E-02    3.43       1.0  T
   3    -69.4850816  0.296370E-06  0.733E-03    3.43       2.0  T
   4    -69.4850820 -0.462541E-06  0.379E-03    3.43       3.9  T
   5    -69.4850825 -0.428370E-06  0.130E-03    3.43      11.4  T
   6    -69.4850825 -0.624641E-08  0.516E-04    3.43      28.9  T
   7    -69.4850825 -0.218540E-08  0.139E-04    3.43     107.5  T
     SCC iter.                  ...        0 min,  0.015 sec
     gradient                   ...        0 min,  0.005 sec
 * total energy  :   -68.7120199 Eh     change       -0.1578147E-03 Eh
   gradient norm :     0.0092686 Eh/α   predicted    -0.2429408E-03 (  53.94%)
   displ. norm   :     0.2215055 α      lambda       -0.3939689E-03
   maximum displ.:     0.1279371 α      in ANC's #19, #8, #3, ...

........................................................................
.............................. CYCLE   13 ..............................
........................................................................

 iter      E             dE          RMSdq      gap      omega  full diag
   1    -69.4814425 -0.694814E+02  0.552E-02    3.43       0.0  T
   2    -69.4814453 -0.271888E-05  0.326E-02    3.43       1.0  T
   3    -69.4814453 -0.845137E-07  0.425E-03    3.43       3.5  T
   4    -69.4814455 -0.141503E-06  0.178E-03    3.43       8.4  T
   5    -69.4814455 -0.571901E-07  0.963E-04    3.43      15.5  T
   6    -69.4814455 -0.877419E-08  0.386E-04    3.43      38.7  T
     SCC iter.                  ...        0 min,  0.013 sec
     gradient                   ...        0 min,  0.004 sec
 * total energy  :   -68.7122318 Eh     change       -0.2119293E-03 Eh
   gradient norm :     0.0071764 Eh/α   predicted    -0.2066507E-03 (  -2.49%)
   displ. norm   :     0.1343143 α      lambda       -0.2446698E-03
   maximum displ.:     0.0693807 α      in ANC's #19, #10, #8, ...

........................................................................
.............................. CYCLE   14 ..............................
........................................................................

 iter      E             dE          RMSdq      gap      omega  full diag
   1    -69.4814709 -0.694815E+02  0.428E-02    3.42       0.0  T
   2    -69.4814728 -0.191068E-05  0.252E-02    3.42       1.0  T
   3    -69.4814726  0.196941E-06  0.479E-03    3.42       3.1  T
   4    -69.4814729 -0.302193E-06  0.223E-03    3.42       6.7  T
   5    -69.4814731 -0.142193E-06  0.854E-04    3.42      17.5  T
   6    -69.4814731 -0.480730E-08  0.348E-04    3.42      42.9  T
     SCC iter.                  ...        0 min,  0.014 sec
     gradient                   ...        0 min,  0.006 sec
 * total energy  :   -68.7123573 Eh     change       -0.1254986E-03 Eh
   gradient norm :     0.0065031 Eh/α   predicted    -0.1245465E-03 (  -0.76%)
   displ. norm   :     0.1969331 α      lambda       -0.2741393E-03
   maximum displ.:     0.0874296 α      in ANC's #19, #8, #12, ...

........................................................................
.............................. CYCLE   15 ..............................
........................................................................

 iter      E             dE          RMSdq      gap      omega  full diag
   1    -69.4805825 -0.694806E+02  0.588E-02    3.41       0.0  T
   2    -69.4805876 -0.512494E-05  0.344E-02    3.41       1.0  T
   3    -69.4805873  0.292472E-06  0.715E-03    3.41       2.1  T
   4    -69.4805877 -0.403025E-06  0.340E-03    3.42       4.4  T
   5    -69.4805881 -0.366304E-06  0.115E-03    3.42      12.9  T
   6    -69.4805881 -0.543787E-08  0.428E-04    3.42      34.8  T
   7    -69.4805881 -0.214133E-08  0.120E-04    3.42     124.5  T
     SCC iter.                  ...        0 min,  0.014 sec
     gradient                   ...        0 min,  0.005 sec
 * total energy  :   -68.7124452 Eh     change       -0.8789873E-04 Eh
   gradient norm :     0.0085347 Eh/α   predicted    -0.1423865E-03 (  61.99%)
   displ. norm   :     0.1449017 α      lambda       -0.2169063E-03
   maximum displ.:     0.0839851 α      in ANC's #19, #8, #3, ...

........................................................................
.............................. CYCLE   16 ..............................
........................................................................

 iter      E             dE          RMSdq      gap      omega  full diag
   1    -69.4812079 -0.694812E+02  0.424E-02    3.41       0.0  T
   2    -69.4812090 -0.106250E-05  0.250E-02    3.41       1.0  T
   3    -69.4812088  0.130149E-06  0.366E-03    3.41       4.1  T
   4    -69.4812090 -0.211354E-06  0.197E-03    3.41       7.6  T
   5    -69.4812091 -0.108417E-06  0.717E-04    3.41      20.8  T
   6    -69.4812091 -0.124977E-08  0.194E-04    3.41      76.7  T
     SCC iter.                  ...        0 min,  0.016 sec
     gradient                   ...        0 min,  0.005 sec
 * total energy  :   -68.7125761 Eh     change       -0.1309521E-03 Eh
   gradient norm :     0.0047917 Eh/α   predicted    -0.1107348E-03 ( -15.44%)
   displ. norm   :     0.1380973 α      lambda       -0.8777204E-04
   maximum displ.:     0.0783582 α      in ANC's #8, #19, #3, ...

........................................................................
.............................. CYCLE   17 ..............................
........................................................................

 iter      E             dE          RMSdq      gap      omega  full diag
   1    -69.4818200 -0.694818E+02  0.399E-02    3.41       0.0  T
   2    -69.4818204 -0.378992E-06  0.236E-02    3.41       1.0  T
   3    -69.4818205 -0.728922E-07  0.152E-03    3.41       9.8  T
   4    -69.4818205 -0.307655E-07  0.826E-04    3.41      18.0  T
   5    -69.4818205 -0.320627E-08  0.554E-04    3.41      26.9  T
     SCC iter.                  ...        0 min,  0.010 sec
     gradient                   ...        0 min,  0.005 sec
 * total energy  :   -68.7126427 Eh     change       -0.6654735E-04 Eh
   gradient norm :     0.0031647 Eh/α   predicted    -0.4472765E-04 ( -32.79%)
   displ. norm   :     0.2149171 α      lambda       -0.1045317E-03
   maximum displ.:     0.1237382 α      in ANC's #8, #19, #3, ...

........................................................................
.............................. CYCLE   18 ..............................
........................................................................

 iter      E             dE          RMSdq      gap      omega  full diag
   1    -69.4825720 -0.694826E+02  0.675E-02    3.42       0.0  T
   2    -69.4825728 -0.732774E-06  0.399E-02    3.42       1.0  T
   3    -69.4825730 -0.191624E-06  0.239E-03    3.42       6.2  T
   4    -69.4825731 -0.958747E-07  0.136E-03    3.42      11.0  T
   5    -69.4825731 -0.788553E-08  0.884E-04    3.42      16.9  T
   6    -69.4825731 -0.129454E-07  0.253E-04    3.42      58.9  T
     SCC iter.                  ...        0 min,  0.012 sec
     gradient                   ...        0 min,  0.005 sec
 * total energy  :   -68.7127083 Eh     change       -0.6563134E-04 Eh
   gradient norm :     0.0031236 Eh/α   predicted    -0.5468279E-04 ( -16.68%)
   displ. norm   :     0.1471953 α      lambda       -0.5257932E-04
   maximum displ.:     0.0825218 α      in ANC's #8, #19, #3, ...

........................................................................
.............................. CYCLE   19 ..............................
........................................................................

 iter      E             dE          RMSdq      gap      omega  full diag
   1    -69.4828646 -0.694829E+02  0.491E-02    3.42       0.0  T
   2    -69.4828650 -0.391527E-06  0.290E-02    3.42       1.0  T
   3    -69.4828651 -0.111225E-06  0.161E-03    3.42       9.2  T
   4    -69.4828651 -0.439107E-07  0.872E-04    3.42      17.1  T
   5    -69.4828651  0.234053E-09  0.529E-04    3.42      28.2  T
     SCC iter.                  ...        0 min,  0.017 sec
     gradient                   ...        0 min,  0.008 sec
 * total energy  :   -68.7127403 Eh     change       -0.3199765E-04 Eh
   gradient norm :     0.0033355 Eh/α   predicted    -0.2686089E-04 ( -16.05%)
   displ. norm   :     0.1592739 α      lambda       -0.4622986E-04
   maximum displ.:     0.0883537 α      in ANC's #8, #3, #19, ...

........................................................................
.............................. CYCLE   20 ..............................
........................................................................

 iter      E             dE          RMSdq      gap      omega  full diag
   1    -69.4821986 -0.694822E+02  0.543E-02    3.41       0.0  T
   2    -69.4821992 -0.577001E-06  0.320E-02    3.41       1.0  T
   3    -69.4821993 -0.948870E-07  0.214E-03    3.41       7.0  T
   4    -69.4821993 -0.693566E-07  0.130E-03    3.41      11.5  T
   5    -69.4821994 -0.291839E-07  0.697E-04    3.41      21.4  T
   6    -69.4821994 -0.297028E-08  0.177E-04    3.41      84.0  T
     SCC iter.                  ...        0 min,  0.022 sec
     gradient                   ...        0 min,  0.007 sec
 * total energy  :   -68.7127734 Eh     change       -0.3309071E-04 Eh
   gradient norm :     0.0031718 Eh/α   predicted    -0.2370283E-04 ( -28.37%)
   displ. norm   :     0.2781511 α      lambda       -0.1270931E-03
   maximum displ.:     0.1172283 α      in ANC's #7, #8, #1, ...
 * RMSD in coord.:     0.6185826 α      energy gain  -0.5061276E-01 Eh

generating ANC from exact Hessian ...
Using Lindh-Hessian (1995)
 Shifting diagonal of input Hessian by   9.871807600431076E-003
 Lowest  eigenvalues of input Hessian
    0.000000    0.000000    0.000000    0.000000    0.000000    0.010000
    0.000000    0.010055    0.010133    0.010325    0.010728    0.011154
    0.011444    0.012077    0.012627    0.013533    0.013923    0.014678
 Highest eigenvalues
    1.766832    1.817892    1.956084    2.030842    2.402542    2.404811
 

........................................................................
.............................. CYCLE   21 ..............................
........................................................................

 iter      E             dE          RMSdq      gap      omega  full diag
   1    -69.4867046 -0.694867E+02  0.113E-01    3.41       0.0  T
   2    -69.4867080 -0.340826E-05  0.667E-02    3.41       1.0  T
   3    -69.4867067  0.134101E-05  0.810E-03    3.41       1.8  T
   4    -69.4867089 -0.218655E-05  0.308E-03    3.41       4.8  T
   5    -69.4867091 -0.200698E-06  0.153E-03    3.41       9.8  T
   6    -69.4867091 -0.153151E-07  0.586E-04    3.41      25.4  T
   7    -69.4867091 -0.201501E-08  0.124E-04    3.41     120.4  T
     SCC iter.                  ...        0 min,  0.015 sec
     gradient                   ...        0 min,  0.006 sec
 * total energy  :   -68.7127777 Eh     change       -0.4253857E-05 Eh
   gradient norm :     0.0082680 Eh/α   predicted     0.0000000E+00 (-100.00%)
   displ. norm   :     0.0513617 α      lambda       -0.1618641E-03
   maximum displ.:     0.0227717 α      in ANC's #15, #8, #33, ...

........................................................................
.............................. CYCLE   22 ..............................
........................................................................

 iter      E             dE          RMSdq      gap      omega  full diag
   1    -69.4838696 -0.694839E+02  0.240E-02    3.41       0.0  T
   2    -69.4838708 -0.115171E-05  0.140E-02    3.41       1.1  T
   3    -69.4838707  0.386367E-07  0.354E-03    3.41       4.2  T
   4    -69.4838709 -0.167120E-06  0.794E-04    3.41      18.8  T
   5    -69.4838709 -0.451153E-08  0.464E-04    3.41      32.2  T
     SCC iter.                  ...        0 min,  0.011 sec
     gradient                   ...        0 min,  0.005 sec
 * total energy  :   -68.7128804 Eh     change       -0.1027432E-03 Eh
   gradient norm :     0.0024315 Eh/α   predicted    -0.8154215E-04 ( -20.64%)
   displ. norm   :     0.0665319 α      lambda       -0.6238549E-04
   maximum displ.:     0.0279060 α      in ANC's #8, #15, #18, ...

........................................................................
.............................. CYCLE   23 ..............................
........................................................................

 iter      E             dE          RMSdq      gap      omega  full diag
   1    -69.4823503 -0.694824E+02  0.256E-02    3.40       0.0  T
   2    -69.4823508 -0.465115E-06  0.151E-02    3.40       1.0  T
   3    -69.4823508  0.380715E-07  0.233E-03    3.40       6.4  T
   4    -69.4823509 -0.115959E-06  0.702E-04    3.40      21.2  T
   5    -69.4823509 -0.384961E-08  0.459E-04    3.40      32.5  T
     SCC iter.                  ...        0 min,  0.011 sec
     gradient                   ...        0 min,  0.006 sec
 * total energy  :   -68.7129179 Eh     change       -0.3749140E-04 Eh
   gradient norm :     0.0022163 Eh/α   predicted    -0.3138968E-04 ( -16.27%)
   displ. norm   :     0.0799952 α      lambda       -0.3983999E-04
   maximum displ.:     0.0381823 α      in ANC's #8, #15, #9, ...

........................................................................
.............................. CYCLE   24 ..............................
........................................................................

 iter      E             dE          RMSdq      gap      omega  full diag
   1    -69.4819529 -0.694820E+02  0.300E-02    3.40       0.0  T
   2    -69.4819532 -0.254169E-06  0.177E-02    3.40       1.0  T
   3    -69.4819532 -0.866964E-08  0.155E-03    3.40       9.6  T
   4    -69.4819532 -0.604730E-07  0.610E-04    3.40      24.5  T
   5    -69.4819532 -0.589822E-09  0.416E-04    3.40      35.8  T
     SCC iter.                  ...        0 min,  0.011 sec
     gradient                   ...        0 min,  0.005 sec
 * total energy  :   -68.7129477 Eh     change       -0.2982337E-04 Eh
   gradient norm :     0.0028813 Eh/α   predicted    -0.2004843E-04 ( -32.78%)
   displ. norm   :     0.1598247 α      lambda       -0.6279828E-04
   maximum displ.:     0.0842012 α      in ANC's #8, #5, #9, ...

........................................................................
.............................. CYCLE   25 ..............................
........................................................................

 iter      E             dE          RMSdq      gap      omega  full diag
   1    -69.4819666 -0.694820E+02  0.610E-02    3.40       0.0  T
   2    -69.4819672 -0.663379E-06  0.360E-02    3.40       1.0  T
   3    -69.4819673 -0.862973E-07  0.255E-03    3.40       5.8  T
   4    -69.4819675 -0.150199E-06  0.127E-03    3.40      11.7  T
   5    -69.4819675 -0.141718E-07  0.807E-04    3.40      18.5  T
   6    -69.4819675 -0.772374E-08  0.175E-04    3.40      85.2  T
     SCC iter.                  ...        0 min,  0.013 sec
     gradient                   ...        0 min,  0.004 sec
 * total energy  :   -68.7129927 Eh     change       -0.4494258E-04 Eh
   gradient norm :     0.0031239 Eh/α   predicted    -0.3221468E-04 ( -28.32%)
   displ. norm   :     0.1694742 α      lambda       -0.5866178E-04
   maximum displ.:     0.0928256 α      in ANC's #8, #5, #3, ...

........................................................................
.............................. CYCLE   26 ..............................
........................................................................

 iter      E             dE          RMSdq      gap      omega  full diag
   1    -69.4824321 -0.694824E+02  0.639E-02    3.40       0.0  T
   2    -69.4824327 -0.537824E-06  0.377E-02    3.40       1.0  T
   3    -69.4824328 -0.152336E-06  0.225E-03    3.40       6.6  T
   4    -69.4824329 -0.955025E-07  0.130E-03    3.40      11.5  T
   5    -69.4824329 -0.143212E-07  0.790E-04    3.40      18.9  T
   6    -69.4824329 -0.715760E-08  0.141E-04    3.40     105.7  T
     SCC iter.                  ...        0 min,  0.014 sec
     gradient                   ...        0 min,  0.006 sec
 * total energy  :   -68.7130379 Eh     change       -0.4524949E-04 Eh
   gradient norm :     0.0027814 Eh/α   predicted    -0.3017374E-04 ( -33.32%)
   displ. norm   :     0.2184640 α      lambda       -0.7727378E-04
   maximum displ.:     0.1185022 α      in ANC's #8, #5, #3, ...

........................................................................
.............................. CYCLE   27 ..............................
........................................................................

 iter      E             dE          RMSdq      gap      omega  full diag
   1    -69.4831423 -0.694831E+02  0.781E-02    3.39       0.0  T
   2    -69.4831431 -0.778176E-06  0.461E-02    3.39       1.0  T
   3    -69.4831433 -0.225043E-06  0.278E-03    3.39       5.4  T
   4    -69.4831435 -0.158742E-06  0.160E-03    3.39       9.3  T
   5    -69.4831435 -0.221350E-07  0.966E-04    3.39      15.4  T
   6    -69.4831435 -0.106267E-07  0.176E-04    3.39      84.7  T
     SCC iter.                  ...        0 min,  0.024 sec
     gradient                   ...        0 min,  0.004 sec
 * total energy  :   -68.7130987 Eh     change       -0.6075590E-04 Eh
   gradient norm :     0.0028637 Eh/α   predicted    -0.4048501E-04 ( -33.36%)
   displ. norm   :     0.2905021 α      lambda       -0.9801475E-04
   maximum displ.:     0.1536941 α      in ANC's #8, #5, #3, ...

........................................................................
.............................. CYCLE   28 ..............................
........................................................................

 iter      E             dE          RMSdq      gap      omega  full diag
   1    -69.4832558 -0.694833E+02  0.977E-02    3.39       0.0  T
   2    -69.4832573 -0.151319E-05  0.576E-02    3.39       1.0  T
   3    -69.4832577 -0.484245E-06  0.312E-03    3.39       4.8  T
   4    -69.4832579 -0.156508E-06  0.178E-03    3.39       8.4  T
   5    -69.4832579 -0.658048E-09  0.118E-03    3.39      12.7  T
   6    -69.4832579 -0.223616E-07  0.347E-04    3.39      43.0  T
   7    -69.4832579 -0.265511E-08  0.773E-05    3.39     192.8  T
     SCC iter.                  ...        0 min,  0.042 sec
     gradient                   ...        0 min,  0.009 sec
 * total energy  :   -68.7131688 Eh     change       -0.7011658E-04 Eh
   gradient norm :     0.0040390 Eh/α   predicted    -0.5314536E-04 ( -24.20%)
   displ. norm   :     0.2418267 α      lambda       -0.8463027E-04
   maximum displ.:     0.1237004 α      in ANC's #5, #8, #3, ...

........................................................................
.............................. CYCLE   29 ..............................
........................................................................

 iter      E             dE          RMSdq      gap      omega  full diag
   1    -69.4841587 -0.694842E+02  0.720E-02    3.39       0.0  T
   2    -69.4841597 -0.104192E-05  0.425E-02    3.39       1.0  T
   3    -69.4841593  0.477817E-06  0.501E-03    3.39       3.0  T
   4    -69.4841601 -0.868948E-06  0.188E-03    3.39       7.9  T
   5    -69.4841602 -0.609904E-07  0.104E-03    3.39      14.3  T
   6    -69.4841602 -0.682768E-08  0.224E-04    3.39      66.7  T
   7    -69.4841602 -0.285539E-09  0.686E-05    3.39     217.4  T
     SCC iter.                  ...        0 min,  0.016 sec
     gradient                   ...        0 min,  0.004 sec
 * total energy  :   -68.7132207 Eh     change       -0.5191975E-04 Eh
   gradient norm :     0.0031322 Eh/α   predicted    -0.4479043E-04 ( -13.73%)
   displ. norm   :     0.2662976 α      lambda       -0.5379958E-04
   maximum displ.:     0.1402234 α      in ANC's #8, #5, #3, ...

........................................................................
.............................. CYCLE   30 ..............................
........................................................................

 iter      E             dE          RMSdq      gap      omega  full diag
   1    -69.4819651 -0.694820E+02  0.874E-02    3.38       0.0  T
   2    -69.4819667 -0.165653E-05  0.515E-02    3.38       1.0  T
   3    -69.4819669 -0.221260E-06  0.351E-03    3.38       4.2  T
   4    -69.4819672 -0.253799E-06  0.207E-03    3.38       7.2  T
   5    -69.4819673 -0.705402E-07  0.118E-03    3.38      12.7  T
   6    -69.4819673 -0.982865E-08  0.397E-04    3.38      37.5  T
   7    -69.4819673 -0.218274E-08  0.759E-05    3.38     196.5  T
     SCC iter.                  ...        0 min,  0.038 sec
     gradient                   ...        0 min,  0.004 sec
 * total energy  :   -68.7132442 Eh     change       -0.2353016E-04 Eh
   gradient norm :     0.0054882 Eh/α   predicted    -0.2881389E-04 (  22.46%)
   displ. norm   :     0.1108308 α      lambda       -0.7512436E-04
   maximum displ.:     0.0638521 α      in ANC's #5, #3, #1, ...

........................................................................
.............................. CYCLE   31 ..............................
........................................................................

 iter      E             dE          RMSdq      gap      omega  full diag
   1    -69.4841059 -0.694841E+02  0.315E-02    3.38       0.0  T
   2    -69.4841072 -0.129956E-05  0.189E-02    3.38       1.0  T
   3    -69.4841056  0.158578E-05  0.762E-03    3.38       2.0  T
   4    -69.4841075 -0.184391E-05  0.209E-03    3.38       7.1  T
   5    -69.4841076 -0.141514E-06  0.502E-04    3.38      29.7  T
   6    -69.4841076 -0.864887E-09  0.248E-04    3.38      60.0  T
     SCC iter.                  ...        0 min,  0.062 sec
     gradient                   ...        0 min,  0.004 sec
 * total energy  :   -68.7132731 Eh     change       -0.2882968E-04 Eh
   gradient norm :     0.0035214 Eh/α   predicted    -0.3802611E-04 (  31.90%)
   displ. norm   :     0.1232557 α      lambda       -0.5669342E-04
   maximum displ.:     0.0648457 α      in ANC's #5, #8, #3, ...

........................................................................
.............................. CYCLE   32 ..............................
........................................................................

 iter      E             dE          RMSdq      gap      omega  full diag
   1    -69.4838875 -0.694839E+02  0.402E-02    3.38       0.0  T
   2    -69.4838878 -0.253890E-06  0.237E-02    3.38       1.0  T
   3    -69.4838878  0.183612E-07  0.193E-03    3.38       7.7  T
   4    -69.4838879 -0.104180E-06  0.918E-04    3.38      16.2  T
   5    -69.4838879 -0.118355E-07  0.514E-04    3.38      29.0  T
     SCC iter.                  ...        0 min,  0.017 sec
     gradient                   ...        0 min,  0.004 sec
 * total energy  :   -68.7133161 Eh     change       -0.4305171E-04 Eh
   gradient norm :     0.0023018 Eh/α   predicted    -0.2877983E-04 ( -33.15%)
   displ. norm   :     0.2938655 α      lambda       -0.7640893E-04
   maximum displ.:     0.1551790 α      in ANC's #5, #8, #3, ...

........................................................................
.............................. CYCLE   33 ..............................
........................................................................

 iter      E             dE          RMSdq      gap      omega  full diag
   1    -69.4828527 -0.694829E+02  0.922E-02    3.37       0.0  T
   2    -69.4828537 -0.105721E-05  0.543E-02    3.37       1.0  T
   3    -69.4828540 -0.295617E-06  0.303E-03    3.37       4.9  T
   4    -69.4828542 -0.157074E-06  0.172E-03    3.37       8.7  T
   5    -69.4828542 -0.109120E-07  0.113E-03    3.37      13.2  T
   6    -69.4828542 -0.189639E-07  0.181E-04    3.37      82.6  T
   7    -69.4828542 -0.479574E-09  0.677E-05    3.37     220.1  T
     SCC iter.                  ...        0 min,  0.023 sec
     gradient                   ...        0 min,  0.004 sec
 * total energy  :   -68.7133691 Eh     change       -0.5301914E-04 Eh
   gradient norm :     0.0035178 Eh/α   predicted    -0.4150413E-04 ( -21.72%)
   displ. norm   :     0.2452576 α      lambda       -0.7155436E-04
   maximum displ.:     0.1233903 α      in ANC's #5, #3, #8, ...

........................................................................
.............................. CYCLE   34 ..............................
........................................................................

 iter      E             dE          RMSdq      gap      omega  full diag
   1    -69.4833216 -0.694833E+02  0.695E-02    3.37       0.0  T
   2    -69.4833225 -0.913936E-06  0.410E-02    3.37       1.0  T
   3    -69.4833218  0.649221E-06  0.506E-03    3.37       2.9  T
   4    -69.4833227 -0.886077E-06  0.183E-03    3.37       8.1  T
   5    -69.4833228 -0.739791E-07  0.882E-04    3.37      16.9  T
   6    -69.4833228 -0.366690E-08  0.235E-04    3.37      63.4  T
     SCC iter.                  ...        0 min,  0.019 sec
     gradient                   ...        0 min,  0.004 sec
 * total energy  :   -68.7134230 Eh     change       -0.5384083E-04 Eh
   gradient norm :     0.0041268 Eh/α   predicted    -0.3793164E-04 ( -29.55%)
   displ. norm   :     0.3422935 α      lambda       -0.9064382E-04
   maximum displ.:     0.1722338 α      in ANC's #5, #3, #1, ...

........................................................................
.............................. CYCLE   35 ..............................
........................................................................

 iter      E             dE          RMSdq      gap      omega  full diag
   1    -69.4830218 -0.694830E+02  0.934E-02    3.36       0.0  T
   2    -69.4830228 -0.103307E-05  0.551E-02    3.36       1.0  T
   3    -69.4830228  0.136450E-07  0.379E-03    3.36       3.9  T
   4    -69.4830232 -0.369720E-06  0.180E-03    3.36       8.3  T
   5    -69.4830232 -0.365657E-07  0.112E-03    3.36      13.3  T
   6    -69.4830232 -0.133903E-07  0.234E-04    3.36      63.8  T
   7    -69.4830232 -0.748301E-09  0.790E-05    3.36     188.7  T
     SCC iter.                  ...        0 min,  0.023 sec
     gradient                   ...        0 min,  0.004 sec
 * total energy  :   -68.7134921 Eh     change       -0.6916889E-04 Eh
   gradient norm :     0.0032917 Eh/α   predicted    -0.5063457E-04 ( -26.80%)
   displ. norm   :     0.3315045 α      lambda       -0.9572155E-04
   maximum displ.:     0.1529867 α      in ANC's #5, #3, #1, ...

........................................................................
.............................. CYCLE   36 ..............................
........................................................................

 iter      E             dE          RMSdq      gap      omega  full diag
   1    -69.4839200 -0.694839E+02  0.816E-02    3.35       0.0  T
   2    -69.4839214 -0.139715E-05  0.483E-02    3.35       1.0  T
   3    -69.4839200  0.135748E-05  0.669E-03    3.35       2.2  T
   4    -69.4839216 -0.164101E-05  0.232E-03    3.35       6.4  T
   5    -69.4839218 -0.141999E-06  0.956E-04    3.35      15.6  T
   6    -69.4839218 -0.405244E-08  0.327E-04    3.35      45.6  T
     SCC iter.                  ...        0 min,  0.020 sec
     gradient                   ...        0 min,  0.004 sec
 * total energy  :   -68.7135520 Eh     change       -0.5990532E-04 Eh
   gradient norm :     0.0032719 Eh/α   predicted    -0.5312096E-04 ( -11.33%)
   displ. norm   :     0.5129590 α      lambda       -0.9085210E-04
   maximum displ.:     0.2646393 α      in ANC's #5, #3, #8, ...

........................................................................
.............................. CYCLE   37 ..............................
........................................................................

 iter      E             dE          RMSdq      gap      omega  full diag
   1    -69.4799839 -0.694800E+02  0.144E-01    3.35       0.0  T
   2    -69.4799869 -0.299293E-05  0.847E-02    3.34       1.0  T
   3    -69.4799834  0.345815E-05  0.109E-02    3.34       1.4  T
   4    -69.4799879 -0.449628E-05  0.333E-03    3.34       4.5  T
   5    -69.4799881 -0.218019E-06  0.160E-03    3.34       9.3  T
   6    -69.4799881 -0.752287E-08  0.521E-04    3.34      28.6  T
   7    -69.4799881 -0.227058E-08  0.120E-04    3.34     123.7  T
     SCC iter.                  ...        0 min,  0.022 sec
     gradient                   ...        0 min,  0.005 sec
 * total energy  :   -68.7135590 Eh     change       -0.6955175E-05 Eh
   gradient norm :     0.0072767 Eh/α   predicted    -0.5738512E-04 ( 725.07%)
   displ. norm   :     0.1073090 α      lambda       -0.1387774E-03
   maximum displ.:     0.0562195 α      in ANC's #8, #5, #3, ...

........................................................................
.............................. CYCLE   38 ..............................
........................................................................

 iter      E             dE          RMSdq      gap      omega  full diag
   1    -69.4842401 -0.694842E+02  0.409E-02    3.34       0.0  T
   2    -69.4842410 -0.913649E-06  0.241E-02    3.34       1.0  T
   3    -69.4842377  0.327742E-05  0.101E-02    3.35       1.5  T
   4    -69.4842414 -0.372386E-05  0.140E-03    3.35      10.6  T
   5    -69.4842415 -0.463061E-07  0.586E-04    3.35      25.4  T
   6    -69.4842415 -0.927770E-09  0.296E-04    3.35      50.3  T
     SCC iter.                  ...        0 min,  0.019 sec
     gradient                   ...        0 min,  0.005 sec
 * total energy  :   -68.7136327 Eh     change       -0.7367939E-04 Eh
   gradient norm :     0.0034495 Eh/α   predicted    -0.7018973E-04 (  -4.74%)
   displ. norm   :     0.1621302 α      lambda       -0.5817988E-04
   maximum displ.:     0.0709910 α      in ANC's #5, #1, #3, ...

........................................................................
.............................. CYCLE   39 ..............................
........................................................................

 iter      E             dE          RMSdq      gap      omega  full diag
   1    -69.4847049 -0.694847E+02  0.404E-02    3.34       0.0  T
   2    -69.4847056 -0.674978E-06  0.239E-02    3.34       1.0  T
   3    -69.4847050  0.567831E-06  0.416E-03    3.35       3.6  T
   4    -69.4847056 -0.619770E-06  0.160E-03    3.35       9.3  T
   5    -69.4847057 -0.808190E-07  0.441E-04    3.35      33.8  T
   6    -69.4847057 -0.103961E-08  0.226E-04    3.35      66.0  T
     SCC iter.                  ...        0 min,  0.019 sec
     gradient                   ...        0 min,  0.004 sec
 * total energy  :   -68.7136728 Eh     change       -0.4008812E-04 Eh
   gradient norm :     0.0028879 Eh/α   predicted    -0.2985687E-04 ( -25.52%)
   displ. norm   :     0.3904780 α      lambda       -0.9135557E-04
   maximum displ.:     0.1760394 α      in ANC's #5, #1, #3, ...

........................................................................
.............................. CYCLE   40 ..............................
........................................................................

 iter      E             dE          RMSdq      gap      omega  full diag
   1    -69.4841129 -0.694841E+02  0.930E-02    3.34       0.0  T
   2    -69.4841144 -0.147571E-05  0.549E-02    3.34       1.0  T
   3    -69.4841128  0.157393E-05  0.740E-03    3.35       2.0  T
   4    -69.4841148 -0.191076E-05  0.248E-03    3.35       6.0  T
   5    -69.4841149 -0.149469E-06  0.100E-03    3.34      14.9  T
   6    -69.4841149 -0.269371E-08  0.318E-04    3.34      46.9  T
   7    -69.4841149 -0.597723E-09  0.961E-05    3.34     155.1  T
     SCC iter.                  ...        0 min,  0.016 sec
     gradient                   ...        0 min,  0.006 sec
 * total energy  :   -68.7137363 Eh     change       -0.6354697E-04 Eh
   gradient norm :     0.0038220 Eh/α   predicted    -0.5264567E-04 ( -17.15%)
   displ. norm   :     0.3092131 α      lambda       -0.7857650E-04
   maximum displ.:     0.1418958 α      in ANC's #1, #5, #3, ...

........................................................................
.............................. CYCLE   41 ..............................
........................................................................

 iter      E             dE          RMSdq      gap      omega  full diag
   1    -69.4835405 -0.694835E+02  0.723E-02    3.34       0.0  T
   2    -69.4835417 -0.121642E-05  0.427E-02    3.34       1.0  T
   3    -69.4835414  0.243071E-06  0.441E-03    3.34       3.4  T
   4    -69.4835420 -0.533352E-06  0.136E-03    3.34      11.0  T
   5    -69.4835420 -0.611900E-08  0.929E-04    3.34      16.0  T
   6    -69.4835420 -0.144174E-07  0.342E-04    3.34      43.6  T
     SCC iter.                  ...        0 min,  0.014 sec
     gradient                   ...        0 min,  0.006 sec
 * total energy  :   -68.7137848 Eh     change       -0.4844323E-04 Eh
   gradient norm :     0.0041859 Eh/α   predicted    -0.4304847E-04 ( -11.14%)
   displ. norm   :     0.1559027 α      lambda       -0.6078747E-04
   maximum displ.:     0.0755384 α      in ANC's #1, #4, #7, ...

........................................................................
.............................. CYCLE   42 ..............................
........................................................................

 iter      E             dE          RMSdq      gap      omega  full diag
   1    -69.4844257 -0.694844E+02  0.312E-02    3.34       0.0  T
   2    -69.4844264 -0.756432E-06  0.185E-02    3.35       1.0  T
   3    -69.4844259  0.544954E-06  0.440E-03    3.35       3.4  T
   4    -69.4844264 -0.574452E-06  0.171E-03    3.35       8.7  T
   5    -69.4844265 -0.981617E-07  0.441E-04    3.35      33.8  T
   6    -69.4844265 -0.930640E-09  0.204E-04    3.35      73.0  T
     SCC iter.                  ...        0 min,  0.013 sec
     gradient                   ...        0 min,  0.006 sec
 * total energy  :   -68.7138245 Eh     change       -0.3970151E-04 Eh
   gradient norm :     0.0028417 Eh/α   predicted    -0.3113315E-04 ( -21.58%)
   displ. norm   :     0.2447957 α      lambda       -0.5807257E-04
   maximum displ.:     0.1273885 α      in ANC's #1, #5, #4, ...
 * RMSD in coord.:     0.6048355 α      energy gain  -0.1051056E-02 Eh

generating ANC from exact Hessian ...
Using Lindh-Hessian (1995)
 Shifting diagonal of input Hessian by   9.872871813163509E-003
 Lowest  eigenvalues of input Hessian
    0.000000    0.000000    0.000000    0.000000    0.000000    0.000000
    0.010000    0.010059    0.010109    0.010309    0.010717    0.011121
    0.011387    0.012169    0.012953    0.013694    0.014062    0.014596
 Highest eigenvalues
    1.760124    1.818015    1.956885    2.028776    2.399928    2.406410
 

........................................................................
.............................. CYCLE   43 ..............................
........................................................................

 iter      E             dE          RMSdq      gap      omega  full diag
   1    -69.4837270 -0.694837E+02  0.550E-02    3.35       0.0  T
   2    -69.4837276 -0.640438E-06  0.326E-02    3.35       1.0  T
   3    -69.4837272  0.429620E-06  0.425E-03    3.35       3.5  T
   4    -69.4837278 -0.557125E-06  0.163E-03    3.35       9.2  T
   5    -69.4837278 -0.649015E-07  0.736E-04    3.35      20.3  T
   6    -69.4837278 -0.246816E-08  0.195E-04    3.35      76.4  T
     SCC iter.                  ...        0 min,  0.014 sec
     gradient                   ...        0 min,  0.004 sec
 * total energy  :   -68.7138590 Eh     change       -0.3457627E-04 Eh
   gradient norm :     0.0030276 Eh/α   predicted     0.0000000E+00 (-100.00%)
   displ. norm   :     0.0308808 α      lambda       -0.2217451E-04
   maximum displ.:     0.0129890 α      in ANC's #4, #14, #1, ...

........................................................................
.............................. CYCLE   44 ..............................
........................................................................

 iter      E             dE          RMSdq      gap      omega  full diag
   1    -69.4845229 -0.694845E+02  0.854E-03    3.35       0.0  T
   2    -69.4845232 -0.255601E-06  0.505E-03    3.35       3.0  T
   3    -69.4845232  0.220803E-07  0.187E-03    3.35       8.0  T
   4    -69.4845232 -0.160461E-07  0.779E-04    3.35      19.1  T
   5    -69.4845232 -0.225070E-07  0.167E-04    3.35      89.5  T
     SCC iter.                  ...        0 min,  0.013 sec
     gradient                   ...        0 min,  0.005 sec
 * total energy  :   -68.7138789 Eh     change       -0.1981931E-04 Eh
   gradient norm :     0.0011589 Eh/α   predicted    -0.1267886E-04 ( -36.03%)
   displ. norm   :     0.1215837 α      lambda       -0.3541353E-04
   maximum displ.:     0.0545035 α      in ANC's #4, #14, #1, ...

........................................................................
.............................. CYCLE   45 ..............................
........................................................................

 iter      E             dE          RMSdq      gap      omega  full diag
   1    -69.4857002 -0.694857E+02  0.261E-02    3.35       0.0  T
   2    -69.4857021 -0.186186E-05  0.154E-02    3.35       1.0  T
   3    -69.4857017  0.373577E-06  0.591E-03    3.35       2.5  T
   4    -69.4857021 -0.324838E-06  0.241E-03    3.35       6.2  T
   5    -69.4857023 -0.217552E-06  0.474E-04    3.35      31.4  T
   6    -69.4857023 -0.298969E-08  0.239E-04    3.35      62.3  T
     SCC iter.                  ...        0 min,  0.014 sec
     gradient                   ...        0 min,  0.004 sec
 * total energy  :   -68.7139052 Eh     change       -0.2632873E-04 Eh
   gradient norm :     0.0029605 Eh/α   predicted    -0.1782351E-04 ( -32.30%)
   displ. norm   :     0.0486326 α      lambda       -0.1704447E-04
   maximum displ.:     0.0245458 α      in ANC's #4, #1, #14, ...

........................................................................
.............................. CYCLE   46 ..............................
........................................................................

 iter      E             dE          RMSdq      gap      omega  full diag
   1    -69.4854087 -0.694854E+02  0.105E-02    3.35       0.0  T
   2    -69.4854087 -0.358619E-07  0.635E-03    3.35       2.3  T
   3    -69.4854087  0.740009E-07  0.153E-03    3.35       9.8  T
   4    -69.4854088 -0.839378E-07  0.418E-04    3.35      35.7  T
   5    -69.4854088 -0.442353E-08  0.145E-04    3.35     102.5  T
     SCC iter.                  ...        0 min,  0.011 sec
     gradient                   ...        0 min,  0.004 sec
 * total energy  :   -68.7139178 Eh     change       -0.1257142E-04 Eh
   gradient norm :     0.0023966 Eh/α   predicted    -0.8543671E-05 ( -32.04%)
   displ. norm   :     0.1000658 α      lambda       -0.2884067E-04
   maximum displ.:     0.0519846 α      in ANC's #4, #1, #14, ...

........................................................................
.............................. CYCLE   47 ..............................
........................................................................

 iter      E             dE          RMSdq      gap      omega  full diag
   1    -69.4845386 -0.694845E+02  0.183E-02    3.35       0.0  T
   2    -69.4845387 -0.888019E-07  0.111E-02    3.35       1.3  T
   3    -69.4845385  0.195294E-06  0.243E-03    3.35       6.1  T
   4    -69.4845387 -0.228905E-06  0.652E-04    3.35      22.8  T
   5    -69.4845388 -0.788883E-08  0.265E-04    3.35      56.2  T
     SCC iter.                  ...        0 min,  0.011 sec
     gradient                   ...        0 min,  0.004 sec
 * total energy  :   -68.7139374 Eh     change       -0.1968393E-04 Eh
   gradient norm :     0.0010267 Eh/α   predicted    -0.1456618E-04 ( -26.00%)
   displ. norm   :     0.1193093 α      lambda       -0.1256282E-04
   maximum displ.:     0.0665784 α      in ANC's #4, #1, #5, ...

........................................................................
.............................. CYCLE   48 ..............................
........................................................................

 iter      E             dE          RMSdq      gap      omega  full diag
   1    -69.4840600 -0.694841E+02  0.206E-02    3.35       0.0  T
   2    -69.4840601 -0.137660E-06  0.124E-02    3.35       1.2  T
   3    -69.4840600  0.185098E-06  0.241E-03    3.35       6.2  T
   4    -69.4840602 -0.215496E-06  0.819E-04    3.35      18.2  T
   5    -69.4840602 -0.166075E-07  0.306E-04    3.35      48.7  T
     SCC iter.                  ...        0 min,  0.011 sec
     gradient                   ...        0 min,  0.005 sec
 * total energy  :   -68.7139502 Eh     change       -0.1276799E-04 Eh
   gradient norm :     0.0014099 Eh/α   predicted    -0.6321432E-05 ( -50.49%)
   displ. norm   :     0.0958007 α      lambda       -0.1160552E-04
   maximum displ.:     0.0551355 α      in ANC's #4, #1, #3, ...

........................................................................
.............................. CYCLE   49 ..............................
........................................................................

 iter      E             dE          RMSdq      gap      omega  full diag
   1    -69.4842836 -0.694843E+02  0.153E-02    3.35       0.0  T
   2    -69.4842837 -0.101931E-06  0.916E-03    3.35       1.6  T
   3    -69.4842837  0.273638E-07  0.125E-03    3.35      12.0  T
   4    -69.4842837 -0.418044E-07  0.520E-04    3.35      28.7  T
   5    -69.4842837 -0.649563E-08  0.259E-04    3.35      57.5  T
     SCC iter.                  ...        0 min,  0.011 sec
     gradient                   ...        0 min,  0.005 sec
 * total energy  :   -68.7139650 Eh     change       -0.1476092E-04 Eh
   gradient norm :     0.0014241 Eh/α   predicted    -0.5833566E-05 ( -60.48%)
   displ. norm   :     0.2248913 α      lambda       -0.2953388E-04
   maximum displ.:     0.1259182 α      in ANC's #4, #1, #3, ...

........................................................................
.............................. CYCLE   50 ..............................
........................................................................

 iter      E             dE          RMSdq      gap      omega  full diag
   1    -69.4849124 -0.694849E+02  0.352E-02    3.35       0.0  T
   2    -69.4849128 -0.389868E-06  0.210E-02    3.35       1.0  T
   3    -69.4849127  0.275691E-07  0.215E-03    3.35       6.9  T
   4    -69.4849128 -0.107554E-06  0.903E-04    3.35      16.5  T
   5    -69.4849128 -0.872789E-08  0.592E-04    3.35      25.2  T
     SCC iter.                  ...        0 min,  0.011 sec
     gradient                   ...        0 min,  0.005 sec
 * total energy  :   -68.7139981 Eh     change       -0.3308883E-04 Eh
   gradient norm :     0.0021180 Eh/α   predicted    -0.1510381E-04 ( -54.35%)
   displ. norm   :     0.2294185 α      lambda       -0.3680686E-04
   maximum displ.:     0.1292048 α      in ANC's #4, #1, #3, ...

........................................................................
.............................. CYCLE   51 ..............................
........................................................................

 iter      E             dE          RMSdq      gap      omega  full diag
   1    -69.4847018 -0.694847E+02  0.349E-02    3.36       0.0  T
   2    -69.4847020 -0.178471E-06  0.208E-02    3.36       1.0  T
   3    -69.4847020  0.474077E-07  0.209E-03    3.36       7.1  T
   4    -69.4847021 -0.123814E-06  0.931E-04    3.36      16.0  T
   5    -69.4847021 -0.899615E-08  0.479E-04    3.36      31.1  T
     SCC iter.                  ...        0 min,  0.011 sec
     gradient                   ...        0 min,  0.005 sec
 * total energy  :   -68.7140300 Eh     change       -0.3190184E-04 Eh
   gradient norm :     0.0021086 Eh/α   predicted    -0.1937225E-04 ( -39.28%)
   displ. norm   :     0.3327474 α      lambda       -0.4773605E-04
   maximum displ.:     0.1879948 α      in ANC's #4, #1, #3, ...

........................................................................
.............................. CYCLE   52 ..............................
........................................................................

 iter      E             dE          RMSdq      gap      omega  full diag
   1    -69.4842680 -0.694843E+02  0.497E-02    3.36       0.0  T
   2    -69.4842683 -0.355510E-06  0.296E-02    3.36       1.0  T
   3    -69.4842682  0.169121E-06  0.330E-03    3.36       4.5  T
   4    -69.4842685 -0.331302E-06  0.132E-03    3.36      11.3  T
   5    -69.4842685 -0.166961E-07  0.643E-04    3.36      23.2  T
   6    -69.4842685 -0.419335E-08  0.177E-04    3.36      84.2  T
     SCC iter.                  ...        0 min,  0.013 sec
     gradient                   ...        0 min,  0.005 sec
 * total energy  :   -68.7140694 Eh     change       -0.3945616E-04 Eh
   gradient norm :     0.0018048 Eh/α   predicted    -0.2651551E-04 ( -32.80%)
   displ. norm   :     0.5103996 α      lambda       -0.4341309E-04
   maximum displ.:     0.2917533 α      in ANC's #4, #1, #3, ...

........................................................................
.............................. CYCLE   53 ..............................
........................................................................

 iter      E             dE          RMSdq      gap      omega  full diag
   1    -69.4834006 -0.694834E+02  0.765E-02    3.36       0.0  T
   2    -69.4834015 -0.897503E-06  0.455E-02    3.36       1.0  T
   3    -69.4834008  0.683288E-06  0.580E-03    3.36       2.6  T
   4    -69.4834019 -0.108869E-05  0.205E-03    3.36       7.3  T
   5    -69.4834019 -0.456454E-07  0.100E-03    3.36      14.9  T
   6    -69.4834019 -0.754909E-08  0.284E-04    3.36      52.5  T
   7    -69.4834019 -0.493543E-09  0.125E-04    3.36     119.4  T
     SCC iter.                  ...        0 min,  0.015 sec
     gradient                   ...        0 min,  0.005 sec
 * total energy  :   -68.7141150 Eh     change       -0.4559410E-04 Eh
   gradient norm :     0.0021794 Eh/α   predicted    -0.2422326E-04 ( -46.87%)
   displ. norm   :     0.2092060 α      lambda       -0.3336191E-04
   maximum displ.:     0.1214837 α      in ANC's #4, #1, #3, ...

........................................................................
.............................. CYCLE   54 ..............................
........................................................................

 iter      E             dE          RMSdq      gap      omega  full diag
   1    -69.4840233 -0.694840E+02  0.314E-02    3.36       0.0  T
   2    -69.4840235 -0.158110E-06  0.186E-02    3.37       1.0  T
   3    -69.4840234  0.112056E-06  0.237E-03    3.37       6.3  T
   4    -69.4840236 -0.179406E-06  0.859E-04    3.37      17.4  T
   5    -69.4840236 -0.105536E-07  0.416E-04    3.37      35.8  T
     SCC iter.                  ...        0 min,  0.011 sec
     gradient                   ...        0 min,  0.005 sec
 * total energy  :   -68.7141432 Eh     change       -0.2816316E-04 Eh
   gradient norm :     0.0017711 Eh/α   predicted    -0.1741304E-04 ( -38.17%)
   displ. norm   :     0.6025542 α      lambda       -0.6077825E-04
   maximum displ.:     0.3520968 α      in ANC's #4, #1, #3, ...

........................................................................
.............................. CYCLE   55 ..............................
........................................................................

 iter      E             dE          RMSdq      gap      omega  full diag
   1    -69.4842602 -0.694843E+02  0.939E-02    3.36       0.0  T
   2    -69.4842616 -0.137428E-05  0.556E-02    3.36       1.0  T
   3    -69.4842596  0.199047E-05  0.876E-03    3.37       1.7  T
   4    -69.4842623 -0.271417E-05  0.239E-03    3.36       6.2  T
   5    -69.4842624 -0.571792E-07  0.118E-03    3.36      12.6  T
   6    -69.4842624 -0.608074E-08  0.315E-04    3.36      47.3  T
   7    -69.4842624 -0.777533E-09  0.139E-04    3.36     107.1  T
     SCC iter.                  ...        0 min,  0.015 sec
     gradient                   ...        0 min,  0.005 sec
 * total energy  :   -68.7142151 Eh     change       -0.7190418E-04 Eh
   gradient norm :     0.0028322 Eh/α   predicted    -0.3529355E-04 ( -50.92%)
   displ. norm   :     0.4396924 α      lambda       -0.6252926E-04
   maximum displ.:     0.2572905 α      in ANC's #4, #1, #3, ...

........................................................................
.............................. CYCLE   56 ..............................
........................................................................

 iter      E             dE          RMSdq      gap      omega  full diag
   1    -69.4835217 -0.694835E+02  0.689E-02    3.36       0.0  T
   2    -69.4835224 -0.714460E-06  0.408E-02    3.36       1.0  T
   3    -69.4835212  0.121411E-05  0.665E-03    3.36       2.2  T
   4    -69.4835229 -0.163588E-05  0.171E-03    3.36       8.7  T
   5    -69.4835229 -0.213167E-07  0.868E-04    3.36      17.2  T
   6    -69.4835229 -0.424515E-08  0.239E-04    3.36      62.4  T
     SCC iter.                  ...        0 min,  0.013 sec
     gradient                   ...        0 min,  0.005 sec
 * total energy  :   -68.7142692 Eh     change       -0.5413263E-04 Eh
   gradient norm :     0.0028923 Eh/α   predicted    -0.3731577E-04 ( -31.07%)
   displ. norm   :     0.5230021 α      lambda       -0.1012591E-03
   maximum displ.:     0.2994638 α      in ANC's #1, #4, #3, ...

........................................................................
.............................. CYCLE   57 ..............................
........................................................................

 iter      E             dE          RMSdq      gap      omega  full diag
   1    -69.4843945 -0.694844E+02  0.889E-02    3.36       0.0  T
   2    -69.4843962 -0.164827E-05  0.525E-02    3.36       1.0  T
   3    -69.4843946  0.159800E-05  0.802E-03    3.36       1.9  T
   4    -69.4843968 -0.225256E-05  0.254E-03    3.36       5.9  T
   5    -69.4843969 -0.107862E-06  0.128E-03    3.36      11.7  T
   6    -69.4843969 -0.649770E-08  0.386E-04    3.36      38.6  T
   7    -69.4843969 -0.120893E-08  0.120E-04    3.36     123.9  T
     SCC iter.                  ...        0 min,  0.018 sec
     gradient                   ...        0 min,  0.005 sec
 * total energy  :   -68.7143397 Eh     change       -0.7046921E-04 Eh
   gradient norm :     0.0026389 Eh/α   predicted    -0.6448265E-04 (  -8.50%)
   displ. norm   :     0.5724253 α      lambda       -0.6196002E-04
   maximum displ.:     0.3341565 α      in ANC's #4, #1, #3, ...

........................................................................
.............................. CYCLE   58 ..............................
........................................................................

 iter      E             dE          RMSdq      gap      omega  full diag
   1    -69.4813641 -0.694814E+02  0.920E-02    3.36       0.0  T
   2    -69.4813659 -0.176073E-05  0.545E-02    3.36       1.0  T
   3    -69.4813627  0.317516E-05  0.104E-02    3.36       1.4  T
   4    -69.4813667 -0.402559E-05  0.254E-03    3.36       5.9  T
   5    -69.4813668 -0.770482E-07  0.136E-03    3.36      11.0  T
   6    -69.4813668 -0.798173E-08  0.440E-04    3.36      33.9  T
   7    -69.4813668 -0.136717E-08  0.153E-04    3.36      97.6  T
     SCC iter.                  ...        0 min,  0.015 sec
     gradient                   ...        0 min,  0.004 sec
 * total energy  :   -68.7143688 Eh     change       -0.2907925E-04 Eh
   gradient norm :     0.0042364 Eh/α   predicted    -0.4113566E-04 (  41.46%)
   displ. norm   :     0.0969315 α      lambda       -0.4636838E-04
   maximum displ.:     0.0528371 α      in ANC's #1, #4, #9, ...

........................................................................
.............................. CYCLE   59 ..............................
........................................................................

 iter      E             dE          RMSdq      gap      omega  full diag
   1    -69.4846542 -0.694847E+02  0.198E-02    3.37       0.0  T
   2    -69.4846549 -0.651001E-06  0.119E-02    3.37       1.3  T
   3    -69.4846544  0.468429E-06  0.454E-03    3.37       3.3  T
[...]
C5-O4-C3-H27=295.70           C6-C5-O4-C3=179.05            H28-C5-O4-C3= 59.01           H29-C5-O4-C3=299.12           
C7-C6-C5-O4=161.61            C7-C6-C5-H28=282.47           C7-C6-C5-H29= 41.16           O8-C6-C5-O4=282.14            
O8-C6-C5-H28= 43.01           O8-C6-C5-H29=161.69           H30-C6-C5-O4= 39.09           H30-C6-C5-H28=159.95          
H30-C6-C5-H29=278.63          H31-C7-C6-C5=297.61           H31-C7-C6-O8=178.42           H31-C7-C6-H30= 59.42          
H32-C7-C6-C5= 58.31           H32-C7-C6-O8=299.12           H32-C7-C6-H30=180.11          H33-C7-C6-C5=178.07           
H33-C7-C6-O8= 58.88           H33-C7-C6-H30=299.87          C9-O8-C6-C5=145.33            C9-O8-C6-C7=267.59            
C9-O8-C6-H30= 27.86           O10-C9-O8-C6=  0.67           C11-C9-O8-C6=180.24           
           -------------------------------------------------
          |                Final Singlepoint                |
           -------------------------------------------------

          ...................................................
          :                      SETUP                      :
          :.................................................:
          :  # basis functions                 108          :
          :  # atomic orbitals                 108          :
          :  # shells                           66          :
          :  # electrons                       120          :
          :  max. iterations                   250          :
          :  Hamiltonian                  GFN2-xTB          :
          :  restarted?                      false          :
          :  GBSA solvation                  false          :
          :  PC potential                    false          :
          :  electronic temp.          300.0000000     K    :
          :  accuracy                    1.0000000          :
          :  -> integral cutoff          0.2500000E+02      :
          :  -> integral neglect         0.1000000E-07      :
          :  -> SCF convergence          0.1000000E-05 Eh   :
          :  -> wf. convergence          0.1000000E-03 e    :
          :  Broyden damping             0.4000000          :
          :  net charge                          0          :
          :  unpaired electrons                  0          :
          ...................................................

 iter      E             dE          RMSdq      gap      omega  full diag
   1    -69.4849506 -0.694850E+02  0.591E-05    3.39       0.0  T
   2    -69.4849506 -0.106013E-10  0.353E-05    3.39     422.8  T
   3    -69.4849506  0.214584E-11  0.218E-05    3.39     682.7  T

   *** convergence criteria satisfied after 3 iterations ***

         #    Occupation            Energy/Eh            Energy/eV
      -------------------------------------------------------------
         1        2.0000           -0.7396215             -20.1261
       ...           ...                  ...                  ...
        54        2.0000           -0.4386751             -11.9370
        55        2.0000           -0.4380716             -11.9205
        56        2.0000           -0.4347453             -11.8300
        57        2.0000           -0.4142171             -11.2714
        58        2.0000           -0.4134713             -11.2511
        59        2.0000           -0.4095925             -11.1456
        60        2.0000           -0.4002847             -10.8923 (HOMO)
        61                         -0.2758835              -7.5072 (LUMO)
        62                         -0.2740805              -7.4581
        63                         -0.1641703              -4.4673
        64                         -0.1640038              -4.4628
        65                         -0.0218968              -0.5958
       ...                                ...                  ...
       108                          0.7071722              19.2431
      -------------------------------------------------------------
                  HL-Gap            0.1244011 Eh            3.3851 eV
             Fermi-level           -0.3380841 Eh           -9.1997 eV

 SCC (total)                   0 d,  0 h,  0 min,  0.013 sec
 SCC setup                      ...        0 min,  0.000 sec (  0.761%)
 Dispersion                     ...        0 min,  0.000 sec (  1.701%)
 classical contributions        ...        0 min,  0.000 sec (  0.343%)
 integral evaluation            ...        0 min,  0.001 sec (  7.998%)
 iterations                     ...        0 min,  0.007 sec ( 52.049%)
 molecular gradient             ...        0 min,  0.005 sec ( 35.798%)
 printout                       ...        0 min,  0.000 sec (  1.157%)

         :::::::::::::::::::::::::::::::::::::::::::::::::::::
         ::                     SUMMARY                     ::
         :::::::::::::::::::::::::::::::::::::::::::::::::::::
         :: total energy             -68.714510877881 Eh    ::
         :: gradient norm              0.000618961324 Eh/a0 ::
         :: HOMO-LUMO gap              3.385127347227 eV    ::
         ::.................................................::
         :: SCC energy               -69.484665439204 Eh    ::
         :: -> isotropic ES            0.127719344960 Eh    ::
         :: -> anisotropic ES          0.003433627086 Eh    ::
         :: -> anisotropic XC          0.013733899137 Eh    ::
         :: -> dispersion             -0.034736940989 Eh    ::
         :: repulsion energy           0.770154561323 Eh    ::
         :: add. restraining           0.000000000000 Eh    ::
         :: total charge               0.000000000000 e     ::
         :::::::::::::::::::::::::::::::::::::::::::::::::::::

           -------------------------------------------------
          |                Property Printout                |
           -------------------------------------------------

    * Orbital Energies and Occupations

         #    Occupation            Energy/Eh            Energy/eV
      -------------------------------------------------------------
         1        2.0000           -0.7396215             -20.1261
       ...           ...                  ...                  ...
        48        2.0000           -0.4625094             -12.5855
        49        2.0000           -0.4594691             -12.5028
        50        2.0000           -0.4529065             -12.3242
        51        2.0000           -0.4505341             -12.2597
        52        2.0000           -0.4443301             -12.0908
        53        2.0000           -0.4431739             -12.0594
        54        2.0000           -0.4386751             -11.9370
        55        2.0000           -0.4380716             -11.9205
        56        2.0000           -0.4347453             -11.8300
        57        2.0000           -0.4142171             -11.2714
        58        2.0000           -0.4134713             -11.2511
        59        2.0000           -0.4095925             -11.1456
        60        2.0000           -0.4002847             -10.8923 (HOMO)
        61                         -0.2758835              -7.5072 (LUMO)
        62                         -0.2740805              -7.4581
        63                         -0.1641703              -4.4673
        64                         -0.1640038              -4.4628
        65                         -0.0218968              -0.5958
        66                         -0.0034470              -0.0938
        67                          0.0034888               0.0949
        68                          0.0345197               0.9393
        69                          0.0681840               1.8554
        70                          0.0702217               1.9108
        71                          0.0806393               2.1943
       ...                                ...                  ...
       108                          0.7071722              19.2431
      -------------------------------------------------------------
                  HL-Gap            0.1244011 Eh            3.3851 eV
             Fermi-level           -0.3380841 Eh           -9.1997 eV

     #   Z          covCN         q      C6AA      α(0)
     1   6 C        3.754    -0.117    22.797     6.808
     2   6 C        3.744     0.115    18.760     6.179
     3   6 C        3.706     0.077    19.430     6.301
     4   8 O        1.702    -0.314    19.244     5.923
     5   6 C        3.707     0.080    19.382     6.293
     6   6 C        3.748     0.111    18.825     6.188
     7   6 C        3.752    -0.120    22.857     6.818
     8   8 O        1.705    -0.261    18.331     5.781
     9   6 C        2.719     0.359    20.914     7.486
    10   8 O        0.857    -0.413    21.939     6.280
    11   6 C        2.887    -0.056    29.400     8.890
    12   6 C        2.838    -0.062    29.544     8.908
    13   8 O        1.701    -0.315    19.259     5.925
    14   6 C        3.695     0.081    19.392     6.300
    15   6 C        3.749     0.117    18.730     6.173
    16   6 C        3.754    -0.119    22.839     6.815
    17   8 O        1.706    -0.255    18.219     5.763
    18   6 C        2.723     0.357    20.942     7.492
    19   8 O        0.856    -0.421    22.103     6.303
    20   6 C        2.888    -0.057    29.421     8.893
    21   6 C        2.841    -0.060    29.475     8.897
    22   1 H        0.925     0.055     2.260     2.351
    23   1 H        0.925     0.062     2.180     2.309
    24   1 H        0.925     0.056     2.245     2.343
    25   1 H        0.923     0.033     2.545     2.495
    26   1 H        0.923     0.029     2.600     2.522
    27   1 H        0.923     0.019     2.747     2.592
    28   1 H        0.923     0.037     2.492     2.469
    29   1 H        0.923     0.030     2.583     2.513
    30   1 H        0.924     0.073     2.055     2.242
    31   1 H        0.925     0.053     2.284     2.363
    32   1 H        0.925     0.053     2.288     2.366
    33   1 H        0.925     0.064     2.150     2.293
    34   1 H        0.926     0.072     2.066     2.248
    35   1 H        0.926     0.062     2.171     2.304
    36   1 H        0.926     0.071     2.080     2.255
    37   1 H        0.923     0.023     2.695     2.567
    38   1 H        0.923     0.040     2.444     2.445
    39   1 H        0.923     0.049     2.331     2.388
    40   1 H        0.925     0.075     2.026     2.226
    41   1 H        0.925     0.059     2.216     2.328
    42   1 H        0.925     0.050     2.315     2.379
    43   1 H        0.926     0.067     2.119     2.276
    44   1 H        0.926     0.063     2.160     2.298
    45   1 H        0.926     0.079     1.994     2.208

 Mol. C6AA /au·bohr⁶  :      17969.431627
 Mol. C8AA /au·bohr⁸  :     395131.696871
 Mol. α(0) /au        :        201.194038


Wiberg/Mayer (AO) data.
largest (>0.10) Wiberg bond orders for each atom

 ---------------------------------------------------------------------------
     #   Z sym  total        # sym  WBO       # sym  WBO       # sym  WBO
 ---------------------------------------------------------------------------
     1   6 C    3.991 --     2 C    1.004    22 H    0.985    24 H    0.985
                            23 H    0.982
     2   6 C    3.950 --     1 C    1.004     3 C    0.975    13 O    0.970
                            25 H    0.960
     3   6 C    3.951 --     4 O    0.983     2 C    0.975    26 H    0.966
                            27 H    0.964
     4   8 O    2.072 --     5 C    0.987     3 C    0.983
     5   6 C    3.957 --     4 O    0.987     6 C    0.987    28 H    0.964
                            29 H    0.964
     6   6 C    3.930 --     7 C    1.000     5 C    0.987    30 H    0.954
                             8 O    0.934
     7   6 C    3.991 --     6 C    1.000    32 H    0.986    31 H    0.984
                            33 H    0.983
     8   8 O    2.312 --     9 C    1.125     6 C    0.934    10 O    0.172
     9   6 C    3.919 --    10 O    1.724     8 O    1.125    11 C    1.010
    10   8 O    2.034 --     9 C    1.724     8 O    0.172
    11   6 C    3.987 --    12 C    1.936     9 C    1.010    34 H    0.963
    12   6 C    3.984 --    11 C    1.936    35 H    0.975    36 H    0.971
    13   8 O    2.075 --    14 C    0.989     2 C    0.970
    14   6 C    3.957 --    13 O    0.989    15 C    0.979    37 H    0.965
                            38 H    0.964
    15   6 C    3.934 --    16 C    1.006    14 C    0.979    39 H    0.958
                            17 O    0.937
    16   6 C    3.989 --    15 C    1.006    41 H    0.984    42 H    0.984
                            40 H    0.981
    17   8 O    2.322 --    18 C    1.130    15 C    0.937    19 O    0.174
    18   6 C    3.918 --    19 O    1.716    17 O    1.130    20 C    1.010
    19   8 O    2.026 --    18 C    1.716    17 O    0.174
    20   6 C    3.987 --    21 C    1.933    18 C    1.010    43 H    0.964
    21   6 C    3.980 --    20 C    1.933    44 H    0.975    45 H    0.970
    22   1 H    0.997 --     1 C    0.985
    23   1 H    0.996 --     1 C    0.982
    24   1 H    0.997 --     1 C    0.985
    25   1 H    0.999 --     2 C    0.960
    26   1 H    0.999 --     3 C    0.966
    27   1 H    1.000 --     3 C    0.964
    28   1 H    0.999 --     5 C    0.964
    29   1 H    0.998 --     5 C    0.964
    30   1 H    0.995 --     6 C    0.954
    31   1 H    0.997 --     7 C    0.984
    32   1 H    0.997 --     7 C    0.986
    33   1 H    0.995 --     7 C    0.983
    34   1 H    0.994 --    11 C    0.963
    35   1 H    0.996 --    12 C    0.975
    36   1 H    0.995 --    12 C    0.971
    37   1 H    0.999 --    14 C    0.965
    38   1 H    0.998 --    14 C    0.964
    39   1 H    0.997 --    15 C    0.958
    40   1 H    0.994 --    16 C    0.981
    41   1 H    0.997 --    16 C    0.984
    42   1 H    0.997 --    16 C    0.984
    43   1 H    0.995 --    20 C    0.964
    44   1 H    0.995 --    21 C    0.975
    45   1 H    0.994 --    21 C    0.970
 ---------------------------------------------------------------------------

Topologies differ in total number of bonds
Writing topology from bond orders to xtbtopo.mol

molecular dipole:
                 x           y           z       tot (Debye)
 q only:       -0.142      -0.507       1.229
   full:       -0.265      -0.372       1.466       3.904
molecular quadrupole (traceless):
                xx          xy          yy          xz          yz          zz
 q only:       10.400     -10.396       0.122     -14.776      -3.992     -10.523
  q+dip:        7.864     -11.950       2.629     -18.275      -4.511     -10.493
   full:       10.136     -11.057       0.623     -17.130      -4.240     -10.759

           -------------------------------------------------
          |                Geometry Summary                 |
           -------------------------------------------------

      molecular mass/u    :      300.3480460
   center of mass at/Å    :        0.0749355       0.1660828      -0.1329513
  moments of inertia/u·Å² :        0.8998487E+03   0.5625748E+04   0.5862768E+04
rotational constants/cm⁻¹ :        0.1873385E-01   0.2996514E-02   0.2875371E-02

 * 42 selected distances

     #   Z          #   Z                                           value/Å
     1   6 C        2   6 C                                       1.5237071
     2   6 C        3   6 C                                       1.5377579 (max)
     3   6 C        4   8 O                                       1.4067647
     4   8 O        5   6 C                                       1.4061585
     5   6 C        6   6 C                                       1.5273785
     6   6 C        7   6 C                                       1.5251090
     6   6 C        8   8 O                                       1.4296209
     8   8 O        9   6 C                                       1.3380558
     9   6 C       10   8 O                                       1.2069766
    11   6 C       12   6 C                                       1.3244130
     2   6 C       13   8 O                                       1.4153586
    13   8 O       14   6 C                                       1.4072032
    14   6 C       15   6 C                                       1.5341662
    15   6 C       16   6 C                                       1.5205806
    15   6 C       17   8 O                                       1.4273143
    17   8 O       18   6 C                                       1.3366970
    18   6 C       19   8 O                                       1.2077773
    20   6 C       21   6 C                                       1.3246400
     1   6 C       22   1 H                                       1.0862272
     1   6 C       23   1 H                                       1.0855553
     1   6 C       24   1 H                                       1.0867227
     2   6 C       25   1 H                                       1.0994303
     3   6 C       26   1 H                                       1.1006322
     3   6 C       27   1 H                                       1.1016174
     5   6 C       28   1 H                                       1.1005059
     5   6 C       29   1 H                                       1.1007921
     6   6 C       30   1 H                                       1.0969915
     7   6 C       31   1 H                                       1.0858186
     7   6 C       32   1 H                                       1.0876176
     7   6 C       33   1 H                                       1.0872072
    11   6 C       34   1 H                                       1.0806108
    12   6 C       35   1 H                                       1.0771777
    12   6 C       36   1 H                                       1.0767630
    14   6 C       37   1 H                                       1.0993671
    14   6 C       38   1 H                                       1.0999741
    15   6 C       39   1 H                                       1.0993264
    16   6 C       40   1 H                                       1.0856839
    16   6 C       41   1 H                                       1.0864175
    16   6 C       42   1 H                                       1.0860237
    20   6 C       43   1 H                                       1.0791225
    21   6 C       44   1 H                                       1.0764497 (min)
    21   6 C       45   1 H                                       1.0781632

 * 3 distinct bonds (by element types)

   Z      Z             #   av. dist./Å        max./Å        min./Å
   1 H    6 C          24     1.0893416     1.1016174     1.0764497
   6 C    6 C           8     1.4772190     1.5377579     1.3244130
   6 C    8 O          10     1.3581927     1.4296209     1.2069766


optimized geometry written to: xtbopt.xyz


           -------------------------------------------------
          | TOTAL ENERGY              -68.714510877881 Eh   |
          | GRADIENT NORM               0.000618961324 Eh/α |
          | HOMO-LUMO GAP               3.385127347227 eV   |
           -------------------------------------------------

------------------------------------------------------------------------
 * finished run on 2025/12/01 at 14:23:28.311     
------------------------------------------------------------------------
 total:
 * wall-time:     0 d,  0 h,  0 min,  1.830 sec
 *  cpu-time:     0 d,  0 h,  0 min, 41.818 sec
 * ratio c/w:    22.855 speedup
 SCF:
 * wall-time:     0 d,  0 h,  0 min,  0.061 sec
 *  cpu-time:     0 d,  0 h,  0 min,  1.400 sec
 * ratio c/w:    22.846 speedup
 ANC optimizer:
 * wall-time:     0 d,  0 h,  0 min,  1.754 sec
 *  cpu-time:     0 d,  0 h,  0 min, 40.125 sec
 * ratio c/w:    22.878 speedup

normal termination of xtb
