42
 energy: -51.377191627940 gnorm: 0.000506896236 xtb: 6.7.1 (edcfbbe)
C            5.42188880938383        0.55954471056771        0.14879401768545
C            4.60237984384560       -0.72830603581395        0.11547341850229
C            5.42285070428091       -1.87862120849808        0.69723128579669
C            3.28568925184560       -0.58470083687876        0.88702046818051
C            2.28434310210752        0.36273451739705        0.22874404811958
C            0.95049258493232        0.36758062045634        0.97400055243210
C           -0.05569915499736        1.37852111122890        0.42082024552050
C           -0.60606318137765        0.98313894225727       -0.94824192513978
C           -1.57951296858856        2.01229141526650       -1.52624499440858
C           -2.91290130138152        2.05921795529618       -0.79138218014493
O           -3.57604388187146        0.80644666846677       -0.95456928227559
C           -4.47090289379217        0.46945224446293       -0.02032509969819
O           -4.74568467093192        1.17166147807892        0.92347640169493
C           -5.08531024514483       -0.86566909068302       -0.26603198851252
C           -6.24353079767647       -1.18478825525674        0.62400162095251
C           -4.60905358355114       -1.68909179345709       -1.19307978217129
H            6.36273060308627        0.42212090033313       -0.37988165690541
H            5.64493488132533        0.83875947201374        1.17656736806913
H            4.88646631616080        1.37861290761639       -0.32357760749640
H            4.36739457982567       -0.96485221113583       -0.92887169117217
H            6.35866175650894       -1.99446561669482        0.15499576722453
H            4.87317496379107       -2.81521771600317        0.63470859314963
H            5.65444946631045       -1.68633270435802        1.74285243770038
H            3.50162221684590       -0.23731355676597        1.90027134645631
H            2.82260578775548       -1.57135399444595        0.97051007986742
H            2.13130592449145        0.05060962035588       -0.80596398275396
H            2.68466182582340        1.37790683364875        0.21732647302809
H            0.51109665178260       -0.63216381717857        0.93994627151240
H            1.14207510748252        0.60598698124603        2.02317450162314
H            0.42132726359465        2.35922813650258        0.34964964250818
H           -0.88108943829384        1.46250494880433        1.13029132881616
H            0.22195022479350        0.86946496162430       -1.64942560484639
H           -1.11402008361690        0.01982318447107       -0.87124954976941
H           -1.13387048762508        3.00776576967360       -1.48743591556762
H           -1.77847168689337        1.76749065375426       -2.57132204600463
H           -3.55318324312984        2.84593653225246       -1.20775306494926
H           -2.78446502206158        2.25683232072983        0.27734446385229
H           -5.95559653921046       -1.04623538045483        1.66414594180839
H           -6.58475849994520       -2.20408678795308        0.47031353678874
H           -7.06367513176064       -0.49681475113426        0.42390209636005
H           -3.76980703022959       -1.42098346897863       -1.81002030373670
H           -5.04846102389237       -2.65859266081630       -1.36018523209832
