23
 energy: -32.642975017529 gnorm: 0.000792360572 xtb: 6.7.1 (edcfbbe)
C           -3.29148005664397       -0.92928015560969        0.48140118067692
N           -2.26794403149870       -0.13939059435726       -0.17253396485494
C           -2.62503642211341        1.26511081893144       -0.18335639259197
C           -0.96560588779130       -0.36840064926372        0.42471746409477
C            0.15863976770931        0.14460845910010       -0.47334358148395
O            1.37246351796422       -0.49082811574040       -0.08083924628890
C            2.51236698548258        0.18792060658828       -0.27270052891860
O            2.56904602421621        1.29218992973187       -0.75522749276352
C            3.67247257153978       -0.60365703607063        0.19292229400016
C            4.90846184944377       -0.14191588771790        0.07439701370039
H           -3.41319320733884       -0.67537709070151        1.54598249427370
H           -4.24114917996021       -0.76415130885805       -0.02469151960636
H           -3.03650545444848       -1.98483325603848        0.40154569022937
H           -1.89594865680301        1.82300762547327       -0.76616241558513
H           -3.59944951100791        1.37672885723357       -0.65588331157220
H           -2.67450455735462        1.69603874138317        0.82905583550698
H           -0.87836384404718        0.08831532091173        1.42691512630688
H           -0.82598641700305       -1.44698036855903        0.53238998532776
H           -0.05945830707115       -0.11812047177626       -1.51416678498458
H            0.29394570586340        1.22819949320920       -0.40266457209923
H            3.43691118675187       -1.56538733387856        0.62278059344400
H            5.08275952547053        0.82639900842258       -0.36649157331949
H            5.76755939863996       -0.70019759241400        0.40412670650802
