15
 energy: -22.891433695554 gnorm: 0.000914796195 xtb: 6.7.1 (edcfbbe)
O           -0.80730734503382        1.12601415157308        1.34994697258463
C           -0.82724763151006        0.30567438087904        0.46554095239324
O            0.27487205564706       -0.20884489447090       -0.09395092163465
C            1.52340877241223        0.25767030102986        0.41628762517029
C            2.64046485912528       -0.42125259372659       -0.35324160704451
C           -2.04461050078743       -0.26966110184750       -0.14771855198692
C           -3.25269768906720        0.09098543258612        0.25848287144096
H            1.56533900721332        1.34728715331408        0.30597397866331
H            1.57555247264733        0.02471829066651        1.48609617322483
H            2.56461881335833       -0.18259389467672       -1.41108271436851
H            3.60198686604437       -0.08026418440287        0.02124794092691
H            2.57424122385606       -1.50017584321545       -0.23472821236390
H           -1.87417349156659       -0.99137570498381       -0.93192988618442
H           -4.15161481892359       -0.31603002631588       -0.17186696920526
H           -3.36283359341529        0.81784853359101        1.04696834838400
