71
 energy: -104.840930274717 gnorm: 0.000647803592 xtb: 6.7.1 (edcfbbe)
C           10.66483747743485       -3.07671258281833       -1.33167124579603
C            9.80240305871613       -3.09644542666937       -0.11014895484273
C           10.07735456141432       -3.79609795751618        0.98479327388226
C            8.56829318078318       -2.26921301716544       -0.21654321051103
O            8.18348917158347       -1.76688543339943       -1.24389585481355
O            7.92666538100826       -2.14490928711938        0.95493124477073
C            6.73023501919263       -1.37210079508803        0.95656772619530
C            7.02497867994488        0.12660523038815        0.90922802482554
C            5.76930504136747        0.94797575888648        1.17821916599210
O            4.81188982635376        0.63027744594350        0.19398149175346
C            3.64477185805669        1.33608945734360        0.16365661689372
C            3.28955237891606        2.33647876668471        1.05669525483727
C            2.08146484313713        3.00293695729928        0.91212146535823
C            1.19821573696661        2.68946159490568       -0.10665003609895
C            1.55788262057673        1.66913830935918       -0.98637025795178
C            2.75582157275919        1.00361632158320       -0.85958010295382
C           -0.10735328809533        3.42988912215836       -0.34626826359246
C           -0.51226483776186        4.33162298645482        0.82897529006446
C            0.10287733462153        4.31752282434066       -1.58162035288901
C           -1.22319347444948        2.41366687039723       -0.52585485702135
C           -2.16378354897965        2.48004575060733       -1.53971268400596
C           -3.20281360040455        1.56531821506846       -1.62721318642213
C           -3.32557851978720        0.55795239628730       -0.68132152343350
O           -4.31601725029821       -0.38052939471250       -0.65320787245230
C           -5.34546869753898       -0.30811647099796       -1.61626386220199
C           -6.39499856939265       -1.35612426304428       -1.26680771707423
C           -7.05461637957470       -1.03635546309571        0.07380111307446
O           -8.02453992602176       -2.01401058553315        0.43005648815860
C           -9.22798384599464       -1.90770125580220       -0.15037364376827
O           -9.51316605294110       -1.03757124176644       -0.93816211450898
C          -10.16097298082332       -2.97493818705409        0.30206363592013
C           -9.64368144074169       -3.96951122601627        1.28980148874108
C          -11.39397075319620       -2.98217721745378       -0.19433484409881
C           -2.37513842618376        0.47399281412570        0.33702980401290
C           -1.34652903423016        1.38576612026429        0.40789023859809
H           10.06523894578456       -3.31708405348833       -2.20733934249187
H           11.48407935074217       -3.78396725433935       -1.24210760531971
H           11.06855910352116       -2.07646119492071       -1.48298348750129
H           10.96523005325394       -4.40231861634564        1.05473490364313
H            9.42435559731855       -3.78517928360705        1.83924398515125
H            6.11013512909378       -1.64875525365411        0.09897130773107
H            6.22235676412912       -1.63965100415014        1.88590497452593
H            7.41465514641543        0.37598925516068       -0.07835007124901
H            7.77795342507223        0.37219220644530        1.66060149087563
H            5.37366735650544        0.71744329674309        2.17890509666777
H            6.02004588672847        2.01711981912406        1.13718081750355
H            3.94043911261529        2.61505196344435        1.87091923206161
H            1.84677487737629        3.77966199666955        1.62240290306410
H            0.88120359094648        1.39140895675521       -1.78121995989364
H            3.03438166785447        0.21976784496362       -1.54586490750911
H            0.19172724285690        5.15148595267781        0.95107222493095
H           -1.49578196981387        4.75492323099274        0.63348537594783
H           -0.56664294761450        3.76452956244407        1.75475724259296
H            0.97681436847824        4.94716043255914       -1.42565091108844
H            0.27454673878732        3.71520402261822       -2.46990783953565
H           -0.75565157671950        4.96408218030400       -1.74740416511510
H           -2.10789039437220        3.25208722466914       -2.29052570093148
H           -3.90686489770031        1.65582040473017       -2.43967000401529
H           -4.94160711800974       -0.50588928391902       -2.61893143442347
H           -5.80384178624801        0.69031479564961       -1.61070179554665
H           -5.92269033726466       -2.33786210977725       -1.20941926428724
H           -7.15636085667929       -1.37156914767777       -2.04774938106988
H           -7.53877975348184       -0.05453370451709        0.02356856394673
H           -6.31364950457114       -1.04894813258671        0.87442941792237
H           -9.31258337788178       -3.46182103019850        2.19367605582307
H          -10.41595312308450       -4.69002941879704        1.54527055202927
H           -8.78429800392763       -4.49500282561072        0.87757538287659
H          -11.69964205229814       -2.23261886562948       -0.90420725088713
H          -12.12060521864961       -3.72395796654213        0.08922206182329
H           -2.46923059112638       -0.31763080756737        1.06371044259813
H           -0.61805296441650        1.30008367028969        1.20098235073377
