71
 energy: -104.838568549961 gnorm: 0.000518623494 xtb: 6.7.1 (edcfbbe)
C           10.75487650785217       -2.00024560947972       -2.86998957209526
C            9.67554598927157       -2.77274283763025       -2.18151238513206
C            9.74808386650096       -4.06911325519622       -1.90126406548373
C            8.49253897999570       -1.95865228415035       -1.78556739072923
O            8.47759882860736       -0.75251096136425       -1.78267263644624
O            7.43964564715934       -2.71493693851453       -1.43970134077637
C            6.26185775948484       -2.02974158345020       -1.02633022596980
C            6.33503191470743       -1.62566724615177        0.44542709000263
C            5.00886029036445       -1.04075517421408        0.91884890795723
O            4.77149906845407        0.14035454737635        0.18836193459660
C            3.66578927509754        0.88512090916974        0.47755614374964
C            3.53248136441130        2.07595393699376       -0.23303272695583
C            2.45508363645957        2.91023195572774       -0.01621866918430
C            1.47211619811671        2.58432235644941        0.91063779819017
C            1.61223172195875        1.39207104445953        1.60980202754192
C            2.68798285232219        0.54647071675465        1.40510994225702
C            0.29160721982165        3.48570502517549        1.23473991518817
C            0.08280173352129        4.59741491879139        0.19621465491886
C            0.59154039699149        4.14326506754718        2.58967232536690
C           -0.97855666016664        2.65051820885056        1.24809621029070
C           -1.21962821425449        1.78545334501942        0.18813384479841
C           -2.37778331526807        1.03311874777807        0.10720777478170
C           -3.33965754734618        1.13545075769924        1.10507716774563
O           -4.52101508727954        0.45218106523305        1.13539075102301
C           -4.84319555297170       -0.39166357316013        0.05388355809661
C           -6.23935469131210       -0.94856907439912        0.30908427924170
C           -6.65761930700702       -1.92199774264815       -0.78972265235461
O           -7.94894169816908       -2.46333428388684       -0.53915239851024
C           -8.99825893072048       -1.71485507957637       -0.91808825102129
O           -8.88464154163348       -0.64318952752065       -1.46128923895624
C          -10.30614574244206       -2.35481439210684       -0.61220278554352
C          -11.49640695908596       -1.55404647895482       -1.03407657919662
C          -10.37885956495284       -3.53805429467217       -0.01216495059990
C           -3.10569693246701        1.99593264671013        2.17527111197732
C           -1.94595867734855        2.74089335525498        2.24165959095175
H           10.99904489417899       -1.11424032491602       -2.28721536235850
H           11.64432298349233       -2.60845594983207       -3.00561689554422
H           10.40237812938794       -1.65895810571081       -3.84257580851635
H            8.94934265993082       -4.58219403595661       -1.39576703991807
H           10.61243065344181       -4.65330790798234       -2.17037702619610
H            6.12092967897104       -1.13608608364348       -1.64166193937408
H            5.44499061553927       -2.73517144849378       -1.19572007500995
H            6.58178030516749       -2.49824394295534        1.05282480400231
H            7.11869753278426       -0.87630225495338        0.56496505828012
H            4.19705554467565       -1.76409669478258        0.75126394869405
H            5.06604977704372       -0.81939579171747        1.99386456570237
H            4.29556939484924        2.32994819865232       -0.95182617264412
H            2.39346007264829        3.82444893571383       -0.58430551684554
H            0.85778113283987        1.10919349309675        2.32998067183207
H            2.75063510005311       -0.36863865383442        1.97342269623484
H            0.91029395107629        5.30287075075090        0.20859832159301
H           -0.83027924254009        5.14092655274546        0.43221952253595
H           -0.01896593452717        4.18206897714757       -0.80327095719122
H            1.56140332849489        4.63499513874353        2.54203735040540
H           -0.15720730130177        4.89321991201099        2.83343512130005
H            0.62654029481805        3.40116514675753        3.38329968211423
H           -0.48072488489658        1.68842456308533       -0.59443530697733
H           -2.51636767948971        0.37489395811954       -0.73632542635064
H           -4.11571355887906       -1.21380227003432       -0.01970033279329
H           -4.83191988398506        0.17183774057404       -0.88948915388268
H           -6.94965116971537       -0.12139385294195        0.34743919748691
H           -6.25300834629473       -1.45580748738871        1.27514941082476
H           -5.98568976575207       -2.78253435613851       -0.82838234397035
H           -6.66526541973566       -1.41123513057341       -1.75926617016971
H          -11.45972670012064       -1.37607839432900       -2.10748332081956
H          -11.47716744727314       -0.58044035231484       -0.54736065106878
H          -12.41977053556803       -2.06731875869112       -0.78278592941198
H          -11.32864591556572       -3.99595612557092        0.20886870419882
H           -9.49554643404401       -4.07940357128397        0.27633500653629
H           -3.85542607705960        2.06809259960454        2.94752560910093
H           -1.80707958138762        3.39792025807904        3.08514559831883
