28
 energy: -44.484133250339 gnorm: 0.000839742980 xtb: 6.7.1 (edcfbbe)
C            4.43866065213082       -1.11414564860774       -0.17363455044767
C            3.56637524657861        0.09459013269163       -0.04860484623134
C            4.00589406397857        1.34474954200123       -0.14232470606211
C            2.12747795271657       -0.20471037329655        0.17995279364834
O            1.65158339012048       -1.31432361844642        0.12618439387078
O            1.40697937711273        0.89023209664827        0.46572292485329
C            0.02102616101990        0.69220543163495        0.70073186490117
C           -0.76443612006475        0.58070571298758       -0.61757064014330
N           -2.14172750434863        0.24107432471051       -0.39847525330885
C           -2.56943116588967       -1.12461188553336       -0.18331787722796
C           -4.05740762855172       -0.95816318021074        0.16150039368836
N           -4.11999169625961        0.42676468314274        0.56948197316231
C           -3.03375576756041        1.14010636155115        0.13098879653644
O           -2.88404560757528        2.33683581237823        0.20178686748088
H            4.46737651836691       -1.64749379939427        0.77517896195709
H            4.02245322055705       -1.79508494914632       -0.91279706328382
H            5.44911475195299       -0.83691862862748       -0.45822170775700
H            5.04696768319432        1.56061483052117       -0.31595984795652
H            3.34014107848049        2.18424091366032       -0.04848236160556
H           -0.11549105710124       -0.22150862291718        1.29039618197659
H           -0.31940300547007        1.56121869293294        1.26563937460232
H           -0.73035548755740        1.54326125580269       -1.13438273794260
H           -0.31176334914588       -0.18879234544237       -1.24768847575459
H           -2.01683650566661       -1.59165002064601        0.64145449811803
H           -2.41207255713838       -1.72047878556291       -1.08604667366128
H           -4.37296172397461       -1.61725490357389        0.97397137167647
H           -4.69186499243570       -1.15119101128286       -0.71368876534754
H           -5.00250492746788        0.88972998201777        0.70313611025934
