47
 energy: -73.489249623538 gnorm: 0.000174066936 xtb: 6.7.1 (edcfbbe)
O            6.85430910532930        2.20299611177870       -1.30178339506555
C            6.49665881929539        1.22405449220114       -0.35352741812654
C            6.60943235195938       -0.13340199335037       -1.03285003560959
S            6.15440727930635       -1.48206764970721        0.09456630618273
C            4.40913605415651       -1.33892352314019        0.30618949980436
C            3.86372692141541       -2.03509683080229        1.38539788268179
C            2.50883850945706       -2.00536020233474        1.61743575606539
C            1.64538217650515       -1.29090451130522        0.77595216968513
C            0.22929534632757       -1.30578986480289        1.05018915987549
C           -0.76027096000117       -0.82775934057517        0.27471571118100
C           -2.14731266767581       -0.98192380585311        0.69475431433006
C           -3.22235685107524       -0.48601816054445       -0.30343711685497
O           -2.67830521501184       -0.51666219730670       -1.60813984467907
C           -3.55902522678862       -0.05805519739526       -2.61608317791631
O           -4.40249620483604       -1.23877779499298       -0.22738774618464
C           -4.23889276680005       -2.63351235603505       -0.40464475413833
C           -3.51700824396443        0.92651582801459        0.17943012639585
C           -2.69051265897742        1.97472250406621       -0.20600054849041
C           -2.93673094970669        3.25586028965811        0.25339837245163
C           -3.99870199377722        3.49517608444959        1.10895826128881
C           -4.81306017728363        2.44771083470960        1.50542861767738
C           -4.57373024865585        1.16481261670262        1.04666659062917
O           -2.48594475358913       -1.43648727069202        1.76790022608360
C            2.20800476269003       -0.60136252647560       -0.30273022902261
C            3.56688243256036       -0.62081956500143       -0.53645097216764
H            6.85231237845344        3.06845111601199       -0.88065892518678
H            7.16782730356559        1.24956664737281        0.51628263320870
H            5.46730045210070        1.38281055247174        0.00184238188196
H            6.00112293448419       -0.17490873573931       -1.93455445987127
H            7.64599322460239       -0.32821982339359       -1.30577539073185
H            4.52307513047477       -2.59313272165700        2.03244657229714
H            2.09932410796699       -2.54491219225129        2.45862455750543
H           -0.06631384331018       -1.77667801484780        1.98121962510254
H           -0.58965271601028       -0.37615609909058       -0.68720039692081
H           -3.04041213372192       -0.22280765156247       -3.55842671320269
H           -4.49688205971536       -0.61918745097133       -2.60499416612855
H           -3.78208181096037        1.00644268215053       -2.49296727636753
H           -3.60926727432732       -2.84951976369138       -1.27319373118539
H           -5.23986590343228       -3.02930660123772       -0.56657030605702
H           -3.80110900516531       -3.09502746481117        0.48431130480549
H           -1.86226243748181        1.78605708051921       -0.87301964978452
H           -2.29552760199661        4.06832765511682       -0.05608357686217
H           -4.18864996086458        4.49602828904823        1.46798674787827
H           -5.63906412499923        2.62976436842354        2.17687056678064
H           -5.19920729018486        0.34095901980375        1.34847594415474
H            1.57231655723940       -0.03759797306786       -0.96747632071181
H            3.95930123240268       -0.07987788986624       -1.38316217668264
