47
 energy: -73.486663147795 gnorm: 0.000475249843 xtb: 6.7.1 (edcfbbe)
O            7.97096647964873        0.35571008849849        0.74489352314753
C            7.18732472046346       -0.43160216377651       -0.11730325160000
C            6.81258026682893       -1.70887780205615        0.62111556087554
S            5.53245886200195       -1.43926772158435        1.88774282584942
C            4.04922634177223       -1.15661117243107        0.98403771393506
C            2.95438436439473       -0.71253468821608        1.73120951921063
C            1.74471790048622       -0.46669781755863        1.12824254794181
C            1.57673895019629       -0.65824791849204       -0.25027499556585
C            0.33440816531698       -0.40291065222138       -0.93606055816763
C           -0.78403260606628        0.13982003372105       -0.42378678902948
C           -1.94947565965216        0.36738420521466       -1.27361683316491
C           -3.08422269817327        1.15129471316982       -0.56746931605468
O           -3.93816112830987        1.64760799964707       -1.56347524968663
C           -5.13280539323411        2.22734211360668       -1.08199848156970
O           -2.58672609041915        2.18941864193050        0.25172894815802
C           -1.85638929432278        3.17775564135541       -0.44649689497095
C           -3.75028624953113        0.10442641204810        0.31122569556153
C           -4.45047562869511       -0.92415869623817       -0.30867679691528
C           -5.06391996310382       -1.89987720565520        0.45485838638190
C           -4.97518668803654       -1.85846200360437        1.83683554812351
C           -4.27236554054678       -0.83734764155216        2.45315989493762
C           -3.65765531059415        0.14375376206029        1.69461297848126
O           -2.07074715238966       -0.05258476943221       -2.40175704006333
C            2.67665142888225       -1.11732656266380       -0.98218352207204
C            3.89457551118861       -1.36217046073335       -0.38332114838396
H            8.14487233385946        1.20889920116604        0.33564853248892
H            6.28164766484577        0.10861083632614       -0.42779177368869
H            7.75756761426810       -0.70060135777363       -1.02144685851455
H            7.67689480885785       -2.05613782801794        1.18603662350891
H            6.48462187737391       -2.49267227511868       -0.05857137452795
H            3.07943910841153       -0.56488535221745        2.79317318289791
H            0.91543331148880       -0.12573673142804        1.72747987500862
H            0.30952017285831       -0.66529808515975       -1.98796548249891
H           -0.86666368948506        0.45837068116781        0.60326679846580
H           -5.61181238980557        2.67906368607116       -1.94812432099838
H           -4.92449892673312        2.99440352038922       -0.32980592308544
H           -5.79426411973598        1.47203114436795       -0.64514151463042
H           -2.40733584922667        3.52922771480378       -1.32238304040504
H           -0.88187643322127        2.79471705282954       -0.76960767668008
H           -1.71516184860448        3.99716529120713        0.25602398670886
H           -4.50661023909417       -0.94505018999257       -1.38707313578964
H           -5.61089065992719       -2.69514572949085       -0.02949262307256
H           -5.45393329901189       -2.62166628503546        2.43260389909717
H           -4.20306960729314       -0.80177758458298        3.53056034187301
H           -3.11879718904438        0.95006858761727        2.16620712699767
H            2.57047959687155       -1.28137796164179       -2.04498704093240
H            4.71285217430143       -1.71804367048151       -0.98955786756140
