39
 energy: -57.205953349213 gnorm: 0.000783272833 xtb: 6.7.1 (edcfbbe)
C           -7.46369570165146        0.22029677895266        0.02315043844618
C           -6.17732092954841        1.04162254772270        0.10771802944049
O           -5.10713252432919        0.37128764505347        0.73017188591990
C           -4.56165296648456       -0.69632638640347       -0.00611306665894
C           -3.19767415902759       -1.06206358309477        0.59323591521125
O           -2.20292635786276       -0.08618725630244        0.43147225838284
C           -1.73087291787419        0.08403187481322       -0.88349077030851
C           -0.40116023418359        0.82794671517985       -0.82337685538621
O            0.62963013074275       -0.09612056291659       -0.56066734676932
C            1.86909483408828        0.52140676700017       -0.32677236473425
C            2.89620495063880       -0.56187283315896       -0.02405337730099
O            4.13590577141219        0.07941864073268        0.24724846952222
C            5.20803536180029       -0.72194183578721        0.35917109299892
O            5.14941623713699       -1.92084137265936        0.23980554543627
C            6.46190404122693        0.02946524820095        0.64015940398344
C            7.67580135565026       -0.83045600240929        0.79050176331350
C            6.46989606883488        1.35426211527966        0.74225222705222
H           -7.35372139509618       -0.61015907196084       -0.67081092843147
H           -8.27668877771906        0.85381338122538       -0.32119127154741
H           -7.71434518580072       -0.17424553179171        1.00493051155614
H           -5.88122232922074        1.37028757569421       -0.90222070806175
H           -6.34384628803162        1.92694676726150        0.72724615857441
H           -4.45183914435552       -0.41355735760596       -1.06435341852389
H           -5.20999633896360       -1.58456060205380        0.04538902705304
H           -2.87005639681599       -2.02019419354693        0.16017783032619
H           -3.31440623857451       -1.16915483367983        1.67342085237008
H           -2.44160772349298        0.66990166751005       -1.48463269847329
H           -1.57117938245906       -0.89048129661853       -1.36593934314838
H           -0.21083177963632        1.34163671088290       -1.77884725239413
H           -0.45828188319788        1.57829893690284       -0.02298913183610
H            2.18879742279224        1.09881406304209       -1.20894832693654
H            1.80424615589379        1.21226337585909        0.52759882472614
H            3.00557675435854       -1.24305949068244       -0.87421109918131
H            2.58122750726660       -1.14962986777223        0.84440248026398
H            8.55953441826676       -0.22693531683869        0.97528038863535
H            7.53349095312622       -1.52814945936381        1.61401776623650
H            7.82112844574282       -1.42401848934201       -0.11033797734567
H            5.57101783703393        1.93356778647568        0.62752543771362
H            7.37955040831559        1.89468374620304        0.94517462987113
