46
 energy: -67.065152480882 gnorm: 0.000215132367 xtb: 6.7.1 (edcfbbe)
C            7.08951352706679        0.51767916641905       -1.54192900943167
C            6.29147581218841        0.80411096860808       -0.52425837855320
C            4.84113746016553        1.01921119567389       -0.72348904962703
O            4.26611003663288        0.95881116422590       -1.78255946654426
O            4.24245108010116        1.30144221109444        0.44103367244998
C            2.83289823800754        1.50797484859571        0.40866567649259
C            2.06961472834792        0.18658384564180        0.39722019672158
C            2.28838457682327       -0.65478881876423        1.65729145161943
C            1.10115568294950       -1.61509781054681        1.65906060503913
C           -0.07505650763722       -0.76612111236863        1.15944463075859
C           -0.99065555861934       -1.45253177499359        0.13667692464971
C           -0.19031570159805       -1.30801033587752       -1.15771498789484
C           -0.07409851280377        0.21137006758632       -1.05106036620784
C           -1.55013690433633        0.61736252261425       -0.96552247363534
C           -2.17899187411991       -0.50648115341562       -0.11151187909686
C           -3.33603468339209       -1.21083500167045       -0.82081082343056
O           -4.39049442741211       -0.30446191624111       -1.13418501774845
C           -5.24384627907844       -0.00050507212381       -0.14758570101530
O           -5.17829799331398       -0.45562099380703        0.96783532264180
C           -6.27368103603943        0.94940370961192       -0.62360469579643
C           -7.24126601948927        1.37030746175292        0.17717070050187
C            0.54809380360228        0.39268803601055        0.33934442310049
H            6.68682808085065        0.43970014632802       -2.53889958495321
H            8.14657903885917        0.35567879419112       -1.41903157284908
H            6.63871719951747        0.89469540863727        0.49359183845923
H            2.57838270049266        2.08977360771809       -0.48437379825190
H            2.60599073664822        2.08534105582906        1.30786357379957
H            2.39949146750556       -0.37825212160894       -0.47918068576128
H            2.24804202220593       -0.00959273030227        2.53707025636434
H            3.24774790709164       -1.17028834213463        1.65427941278337
H            1.29127446505484       -2.44236120560454        0.97446989051563
H            0.91292914344579       -2.03395406191163        2.64657754303105
H           -0.65007865397115       -0.39756694004467        2.01059397740530
H           -1.28583440494050       -2.46181632737660        0.41910472216264
H            0.76853616175703       -1.81882081199915       -1.12994255176457
H           -0.73568269754742       -1.63074622518878       -2.04173566457417
H            0.47754349757509        0.71274428068495       -1.84428954931486
H           -2.00211228498298        0.64152507319415       -1.95756508798688
H           -1.68008426970627        1.60038302886971       -0.51414937951067
H           -2.56963974189884       -0.11915430854081        0.83274256542364
H           -3.02440387644785       -1.62690281905502       -1.78043008953554
H           -3.73108000857380       -2.00702765375860       -0.17996867866075
H           -6.17753411122900        1.26272851663210       -1.65189785436723
H           -7.28851546180120        1.02232875470859        1.19646483526835
H           -8.00194234669111        2.05883704186803       -0.14839795537758
H            0.29688598874244        1.37025863088390        0.75704608267053
