46
 energy: -68.497357877727 gnorm: 0.000488829790 xtb: 6.7.1 (edcfbbe)
C            1.73601338447593        2.38284784110631        0.19968289136920
C            2.41492688558661        1.05178920717901        0.10746697578144
C            1.74345989656104       -0.09036416173000        0.54687688102454
C            0.35155467578754        0.04053028460702        1.01162443870875
P           -0.81240444039517        0.18486905416059       -0.46097013996459
C           -1.87619204238497        1.62421727027379       -0.12137522990447
C           -2.11286578897578        2.47687821417053       -1.19120451412205
C           -2.91433733433812        3.59088482919401       -1.02086456735735
C           -3.47460574548319        3.85220465148287        0.21898842367146
C           -3.22970492344341        3.00415347198637        1.28782686063358
C           -2.43144044027786        1.88658748011919        1.12363119439043
C           -1.89236361239097       -1.26973774631856       -0.24311084897898
C           -2.20106540818849       -1.97135216771415       -1.40088680260724
C           -3.01487309237240       -3.08783043845695       -1.33641911670583
C           -3.51474170502592       -3.50566411623920       -0.11397532759860
C           -3.19849558666005       -2.80958602592813        1.04233483137154
C           -2.38963677032041       -1.68920388721138        0.98375411920110
O           -0.14238002214935        0.21889043650956       -1.76572945864591
O           -0.04558397761575        0.00769860152860        2.14660449665448
C            2.34024004212980       -1.34895144223883        0.47791244816900
C            1.57523419211014       -2.56317564769829        0.91041457839102
C            3.62969518227046       -1.44372870404420       -0.02181660308787
C            4.32404358510051       -0.32202388794917       -0.45150579643301
C            5.72274853531703       -0.43446705700587       -0.97661713546828
C            3.70406625615232        0.91914217884202       -0.37853830579414
H            1.51492868571271        2.63112334357407        1.23831457412059
H            0.79072613754657        2.35580256532378       -0.34654122334439
H            2.35834568711231        3.16803294189412       -0.22221716525204
H           -1.65640679203759        2.25279896084731       -2.14508595885284
H           -3.10126901678235        4.25468493602327       -1.85213732550866
H           -4.10092194285995        4.72169087398116        0.35493446247618
H           -3.66273507307682        3.21623687235328        2.25442321683843
H           -2.22724042611407        1.23426539425118        1.95814666294956
H           -1.78665003149764       -1.63228432579692       -2.33942216203153
H           -3.25702791709024       -3.63251037925526       -2.23721296439683
H           -4.14777198275643       -4.37910302206179       -0.05986037038507
H           -3.58278366010701       -3.14330695572641        1.99506640129748
H           -2.12977679709357       -1.15974208013511        1.88740784995804
H            2.18459671436732       -3.45857297541951        0.81790949514582
H            0.68285471774344       -2.68334369510859        0.29283399786313
H            1.25196888400044       -2.46402848122901        1.94600682005344
H            4.09788685679752       -2.41590997949623       -0.08344802574689
H            5.83522298162248        0.14327194522908       -1.89185760022027
H            6.42911300706648       -0.04152472951919       -0.24508435657777
H            5.98118103266281       -1.47033667755414       -1.18016207561693
H            4.23446518931656        1.79814722920148       -0.71612354548037
