46
 energy: -68.497387737718 gnorm: 0.000214557307 xtb: 6.7.1 (edcfbbe)
C            1.37892348816743        1.81503557050920        2.13081737096956
C            2.22369825223823        0.88289712004741        1.31593193870511
C            1.65089186297774       -0.25509924107350        0.74895833584640
C            0.21150196553785       -0.51880591196268        0.92056112089573
P           -0.73547692809767        0.08457158103120       -0.59136116835009
C           -1.86019336863928        1.32688522210810        0.12896713817390
C           -1.97301169161200        2.52266509233319       -0.56753311221761
C           -2.80462310231874        3.52155840053312       -0.09460220338044
C           -3.51864933287893        3.32603306632751        1.07635742035518
C           -3.39783957954618        2.13518463583453        1.77555690088954
C           -2.57084237182071        1.13106741620089        1.30585954597060
C           -1.81103892139254       -1.29665250685968       -1.09618062075943
C           -1.91054634378674       -1.52592190519863       -2.46198126772517
C           -2.71388736360951       -2.54830541477663       -2.93283415066398
C           -3.41355563624244       -3.34156491111283       -2.03795981972064
C           -3.30444659052621       -3.11752330156775       -0.67442188245576
C           -2.50451738382631       -2.09514038119948       -0.19685021616761
O            0.11170608672861        0.61774601501136       -1.66391590947471
O           -0.33638589465434       -0.99552782495446        1.87911086965234
C            2.39918095594422       -1.11523325507417       -0.05576138972984
C            1.73950526060418       -2.31944286239686       -0.65254536620094
C            3.73969368882655       -0.83636570172673       -0.25986750627825
C            4.33737156567882        0.28449848016488        0.30216106886560
C            5.79302578044328        0.55740560154189        0.07563999957466
C            3.56679056215296        1.13368604596147        1.08380631840415
H            0.93594166455618        1.29038916696402        2.97682703190289
H            0.56442763053399        2.21167724528726        1.52125946077535
H            1.96972168627658        2.64719850488769        2.50512478642709
H           -1.39510950823232        2.65313375638489       -1.47128338112508
H           -2.89400079184585        4.45193529597131       -0.63597641159923
H           -4.16713802901082        4.10516881219080        1.44936273143349
H           -3.94961527495351        1.98957183130907        2.69271901505111
H           -2.46329012097999        0.21212689230338        1.86085588809693
H           -1.34710092616446       -0.89712694985140       -3.13689415833883
H           -2.79426912238522       -2.72743263283454       -3.99495044962714
H           -4.04212771268537       -4.14045836628807       -2.40317039386164
H           -3.84483909427460       -3.74397521811972        0.02010261319205
H           -2.40508231859667       -1.93158319799077        0.86478048543481
H            0.86921661391686       -2.01365361389781       -1.23767134087973
H            2.42448851252894       -2.85699812215606       -1.30346984180770
H            1.39511742379247       -2.99687057369674        0.12965181953984
H            4.32897934724536       -1.49941167923785       -0.87715862104204
H            6.03324349760713        1.59541890794551        0.29076661316797
H            6.39581317750684       -0.07473061692422        0.72841973111877
H            6.07039216621881        0.33609339392293       -0.95264909859833
H            4.01795721860127        2.01587713412982        1.51544110555169
