46
 energy: -68.494899638774 gnorm: 0.000574998041 xtb: 6.7.1 (edcfbbe)
C            1.81878402961621       -0.60107915763222        3.10479407761038
C            2.17634473965474       -0.58590895330121        1.65146691886707
C            1.55437010566487        0.31099181377412        0.77905409716100
C            0.41832958635549        1.13005951013693        1.24744061903417
P           -1.22582718029113        0.18583196325477        1.12226813843433
C           -1.14159659222454       -0.80982356906690       -0.40324320158339
C           -0.41100697077615       -1.98857296720324       -0.32407946101782
C           -0.26041857668391       -2.78618142561207       -1.44250846346172
C           -0.84970124669259       -2.41320338312147       -2.63984704657795
C           -1.59794538513578       -1.24970335647199       -2.71418439586232
C           -1.74290724278837       -0.44293871760926       -1.59893938800164
C           -2.49924862067952        1.46236758738158        0.91673578001999
C           -2.34375614431107        2.54037156511669        0.05425006754783
C           -3.35212751379348        3.48104514988016       -0.04977394223174
C           -4.50872665528036        3.34767797689712        0.70268042651371
C           -4.65891024200148        2.27684183430477        1.56901039479275
C           -3.65230402863897        1.33469460740339        1.67863809710717
O           -1.40264654960769       -0.64632188284560        2.32385663750118
O            0.43749106882521        2.22255864664086        1.74006909640759
C            1.93493695431659        0.38732128946602       -0.56252769454067
C            1.31755557139180        1.41198094969541       -1.46564671656451
C            2.90361877342267       -0.48472972954292       -1.03267391037315
C            3.50372484204502       -1.41609393237851       -0.19773077909083
C            4.54871977131903       -2.35205171417738       -0.72327784488877
C            3.14424412141294       -1.43813972895629        1.14261470327215
H            2.05081561396525        0.36331697178882        3.55612207930510
H            0.75315823162123       -0.77768924469956        3.23891964867297
H            2.37235829242629       -1.37503941427717        3.63041122149088
H            0.02471268499631       -2.27192854064056        0.62290769007978
H            0.31483833188814       -3.69790557034085       -1.38118368326161
H           -0.73342946565056       -3.03447302292555       -3.51559161327714
H           -2.06893930716861       -0.96824832424345       -3.64474598824124
H           -2.32953714407297        0.46371397688613       -1.65436052194098
H           -1.43494770069440        2.64822448583438       -0.52050475436713
H           -3.23548913800546        4.32358019149152       -0.71584767766112
H           -5.29222793504103        4.08639314621552        0.61788430371959
H           -5.55752191325462        2.17999990224534        2.16026870578222
H           -3.73581124208434        0.49505960302413        2.35370559418670
H            0.27295398108790        1.16854418044651       -1.66318456147407
H            1.84295184498738        1.45060584745620       -2.41680837394193
H            1.35768680649726        2.39808444254259       -1.00444757372705
H            3.19441464575358       -0.43572454645075       -2.07236041923996
H            5.53769535728849       -1.90694824035023       -0.60987223199897
H            4.53884408489674       -3.29113245355818       -0.17509132520747
H            4.39023994126653       -2.55582042136034       -1.77960874463152
H            3.62623641417438       -2.13960634513695        1.80867301566979
