15
 energy: -22.894660112770 gnorm: 0.000401928725 xtb: 6.7.1 (edcfbbe)
O            0.73069012216628        1.46541909001435        0.56375716846958
C            0.39929980893770        0.34832259127498        0.24914763846763
O            1.27632949841954       -0.65839717801240        0.10730813797145
C            2.63605212712860       -0.32740076033884        0.34268090871901
C           -1.00512100448398       -0.06089631717766       -0.02354779700852
C           -1.29777417111257       -1.26805906482291       -0.49496401971743
C           -2.02253158180429        0.99712916158198        0.26249537105682
H            3.20551928250806       -1.23636935929583        0.16683130964098
H            2.95714950227270        0.46544243168319       -0.33630998989957
H            2.77089772261557        0.01729083115462        1.37022283430319
H           -2.31570853038737       -1.55616698365585       -0.69952638770307
H           -0.53419583888972       -2.00014178537313       -0.68907203862059
H           -2.05490578654437        1.19878122874420        1.33222717573274
H           -3.00830221595659        0.69065515780400       -0.07422638180587
H           -1.73739793486950        1.92439195641926       -0.23063692960635
