45
 energy: -68.714533183402 gnorm: 0.000231593221 xtb: 6.7.1 (edcfbbe)
C            1.08543855795722       -1.60537136520464       -2.49583268105296
C            0.33909374096839       -0.97481032811163       -1.31928053169828
C           -0.74759059678391       -0.01095676384787       -1.80139240187471
O           -1.58318089532549        0.28476930181347       -0.71140612156048
C           -2.58030528613954        1.22805046281257       -1.01439009811617
C           -3.38018598768454        1.53197791625517        0.25800914774386
C           -2.48595846309740        2.05711128612291        1.37031250172044
O           -4.00571532662566        0.34327827277306        0.74272049099802
C           -5.09595607537648       -0.08288756353720        0.10073262785946
O           -5.59665901703741        0.49405141842099       -0.83639275675160
C           -5.63829784359754       -1.33729081880698        0.66991989925704
C           -5.03021431080503       -2.03846856128702        1.61491424396167
O            1.20733374406594       -0.22579967093509       -0.49126415627284
C            1.83760910634363       -0.96593521034067        0.52309296330838
C            2.64249769176600       -0.01070122801671        1.41301175565814
C            1.77576028139679        1.10860647653328        1.96718298507923
O            3.69943066310014        0.59295057469082        0.66431104982137
C            4.76941267332094       -0.16022488504345        0.39634773264737
O            4.90525362373239       -1.30314689037142        0.76404560959951
C            5.76096736372763        0.60140729681605       -0.39546543929713
C            6.89805195221907        0.04598230579523       -0.78665618301986
H            0.40514990966410       -2.19654105381819       -3.10198730623715
H            1.52799956014826       -0.82527414044914       -3.11009244033158
H            1.88014369747276       -2.25195760130224       -2.13254985986760
H           -0.15023185126479       -1.75817971385756       -0.72058669494066
H           -0.27143778177815        0.90533630730870       -2.17931833540300
H           -1.32682101818065       -0.47030864244792       -2.61703641170743
H           -3.25587865283233        0.83975118318996       -1.79135072634248
H           -2.13181508667944        2.16303292684321       -1.38431284752655
H           -4.16667871029095        2.25449325551771       -0.00148918894744
H           -1.68140003624838        1.34793052911211        1.53951670323025
H           -2.06512374342059        3.01605753793307        1.08333717485862
H           -3.06062859162221        2.17637586513762        2.28465225506356
H           -6.57523362527659       -1.64751195560553        0.22980808902908
H           -5.44778375163199       -2.95405349728350        1.99929982992103
H           -4.09075310896954       -1.71343071394085        2.02880644152951
H            2.51662557164273       -1.72200306504132        0.10451966957187
H            1.08936209247865       -1.48024368840621        1.14578660794793
H            3.09378522327609       -0.60604056617823        2.21942907040577
H            1.29773396936656        1.62579840474709        1.14102810353143
H            1.01380811594783        0.69272973414569        2.61970553730902
H            2.38622451942320        1.81054296178332        2.52847639830907
H            5.48661617496539        1.61901386454238       -0.62698247525018
H            7.11671432396217       -0.97705805601562       -0.52597799563560
H            7.63283520371104        0.57894909755510       -1.36520223654837
