12
 energy: -306.479409159100 gnorm: 0.000754380431 xtb: 6.7.1 (edcfbbe)
O           -0.21369357833855        1.31597777253907       -0.32070450631231
C            0.04170340073594        0.22425701082621        0.11606577793295
O           -0.87028847453977       -0.65557486323812        0.57317903231380
C           -2.24473726232502       -0.26737828154853        0.53332105385941
C            1.38692555171062       -0.35446640117996        0.23601203710556
C            2.44202833629453        0.34066390596075       -0.15776989307703
H           -2.77391722934227       -0.95244115873385       -0.12664465421518
H           -2.34000581914041        0.75031838974009        0.16765493684858
H           -2.64364345875744       -0.34245224015582        1.54339601346134
H            1.46164634287332       -1.34669745866790        0.64939134253055
H            3.44653926823195       -0.04399967399044       -0.08676483543057
H            2.30744292259709        1.33179499844849       -0.56198130501711
