12
 energy: -306.480817824500 gnorm: 0.000654871702 xtb: 6.7.1 (edcfbbe)
O            0.07845696717332        1.09154907181780       -0.88072242802890
C           -0.05828139902440        0.16901141239152       -0.11937708362188
O            0.95825258099790       -0.57692712807822        0.35250117283558
C            2.25329131043109       -0.20410976627644       -0.11863914392276
C           -1.33344676043491       -0.31164689457204        0.42791149965171
C           -2.46603487357210        0.27598638127517        0.07564083568169
H            2.30744614262301       -0.30552070950527       -1.20143690277459
H            2.47344783956880        0.82695962479865        0.15144082259742
H            2.95254150330683       -0.88239533113978        0.36365562759289
H           -1.29646962655418       -1.14545036038124        1.10958292630878
H           -2.44491548067731        1.10699486554552       -0.61187516884241
H           -3.42428820383802       -0.04445116587569        0.45131684252245
