12
 energy: -306.480818662000 gnorm: 0.000954883104 xtb: 6.7.1 (edcfbbe)
O           -0.28616989606902       -0.43522294240211        1.32353204770526
C            0.02828148806162       -0.06479180965377        0.22209613260524
O           -0.84957724306818        0.31209322788773       -0.72591548534540
C           -2.22375078248919        0.24157409757828       -0.34245473386151
C            1.40087317585169        0.04269946491931       -0.28808665806834
C            2.42056411462528       -0.29552035962377        0.48497854886101
H           -2.79121932221279        0.58211564198053       -1.20365208492187
H           -2.49403736667915       -0.78114596561111       -0.08809624896747
H           -2.41205293984569        0.88162601007290        0.51791469109816
H            1.52742941444919        0.39906194678418       -1.29703965088532
H            3.44349429663219       -0.23496226317396        0.15038222795003
H            2.23616306074411       -0.64752704875796        1.48761121383013
