12
 energy: -306.480818773400 gnorm: 0.000428335750 xtb: 6.7.1 (edcfbbe)
O            0.28836429021177        1.01519438829320       -1.03834512351526
C           -0.02773811436583        0.15570924526230       -0.25693843362169
O            0.84363348598407       -0.51803308704944        0.51683831622653
C            2.21271039059140       -0.14779950314287        0.35168112076779
C           -1.39625878663288       -0.31271460592819       -0.00286799828727
C           -2.40819539744213        0.20921715211202       -0.67780750806004
H            2.53469610168682       -0.33088007006768       -0.67169216842983
H            2.35227630186789        0.90644192168433        0.58282914996230
H            2.77510438303660       -0.76750221918957        1.04448432343180
H           -1.52562212524918       -1.08353942795398        0.73883601764560
H           -2.22120555771456        0.97980189172026       -1.40917168585126
H           -3.42776497197395       -0.10589568574041       -0.52524001026867
