12
 energy: -306.480820411200 gnorm: 0.000465287848 xtb: 6.7.1 (edcfbbe)
O            0.18469246489111        0.90271105882969        0.92936897659226
C           -0.04268766898022        0.12772983825799        0.03660434500794
O            0.89604254268646       -0.36316845364669       -0.79373504403067
C            2.22392374248871        0.10267090357452       -0.55008088505201
C           -1.36097723538360       -0.41781205755404       -0.31169989378938
C           -2.42646723701914       -0.06625521262669        0.39058132622797
H            2.85137313664216       -0.38284184991389       -1.29253238311284
H            2.54299297456063       -0.16743548004117        0.45475922970186
H            2.27252227362394        1.18465055963394       -0.65792547958339
H           -1.40989421691702       -1.09959404916132       -1.14476303415326
H           -3.41286011319904       -0.44163086513793        0.17126178289915
H           -2.31865866339407        0.62097760778588        1.21509805929222
