12
 energy: -306.478386822300 gnorm: 0.000865052365 xtb: 6.7.1 (edcfbbe)
O            0.50722931595335       -1.70859509671628        0.75020631747052
C           -0.03641770492772       -0.69981632729257        0.37927015290927
O            0.62461862300436        0.41818427851389        0.02470738006671
C            2.04771377221176        0.33684095978475        0.12441467398848
C           -1.49317953801481       -0.54516196641881        0.25948955131869
C           -2.10043659634632        0.56917178395443       -0.11516985737929
H            2.34519667507743        0.14110985793181        1.15258453437757
H            2.42873109777688       -0.45892619340803       -0.51278228771588
H            2.42420271332314        1.30141358997479       -0.20463451796647
H           -2.04356841145776       -1.43793493531945        0.51621711999161
H           -1.52933070262696        1.44717046671516       -0.36557358535516
H           -3.17475924397335        0.63654258228032       -0.18363548170606
