12
 energy: -306.480808130600 gnorm: 0.000520324113 xtb: 6.7.1 (edcfbbe)
O           -0.13580963806755       -1.06357357296640        0.70779571836418
C            0.04990411936653       -0.14570289953588       -0.04892025641930
O           -0.93344415372668        0.52024165018022       -0.68308733155679
C           -2.25537604076397        0.05990887491543       -0.40358537486469
C            1.35725057045764        0.40923243587157       -0.42242116421347
C            2.46594465634530       -0.14021908365250        0.04735831717568
H           -2.92003838052539        0.68731699520409       -0.99083964316680
H           -2.36338368235380       -0.98438604497529       -0.69121180285751
H           -2.47643574427839        0.15899478877654        0.65747631079694
H            1.36291075604022        1.25871743209084       -1.08544617167874
H            3.44605132738065        0.23135716822462       -0.20479684603020
H            2.40242521012548       -0.99188674413329        0.70633924445074
