12
 energy: -306.480812025300 gnorm: 0.000914893275 xtb: 6.7.1 (edcfbbe)
O           -0.01993784306746        1.25121179027257       -0.45641988209541
C            0.06792414711240        0.18185371438495        0.08990104125207
O           -0.98830782659542       -0.54001527528713        0.50938306703260
C           -2.26387059353603        0.05195379350465        0.26524240211982
C            1.31789940153230       -0.52742131144094        0.39271851153397
C            2.47930352482747        0.00854294897524        0.05245228363164
H           -2.39849017101753        0.24209077453846       -0.79766053432081
H           -2.35712766476200        0.99103234884315        0.80731865799011
H           -2.99784845061785       -0.66656647105682        0.61938107460092
H            1.23964568888213       -1.47921763378597        0.89180009052616
H            2.50044974232217        0.96350309119244       -0.44859321117614
H            3.42036004491983       -0.47696777014059        0.25421949890508
