12
 energy: -306.480818231100 gnorm: 0.000532574621 xtb: 6.7.1 (edcfbbe)
O            0.17816745327850       -0.61905805896333       -1.02395241523600
C            0.08200804309187       -0.12334396863817        0.06897836462185
O           -0.89657678612344        0.72882660312244        0.42753882885388
C           -1.84952012446172        1.02120135010038       -0.59461310166809
C            0.99707524895571       -0.34546394114825        1.19610434895289
C            2.03798093110262       -1.15028689599026        1.05124764218591
H           -2.37105003785850        0.11520736515696       -0.89790272231443
H           -2.54504283326850        1.73311344197866       -0.15879336026880
H           -1.35564628913464        1.45228503656147       -1.46315159105836
H            0.77988816865343        0.16740266169732        2.11859047989465
H            2.20775442022205       -1.63747258206987        0.10371831367204
H            2.73496280554262       -1.34241101180735        1.85076821236446
