12
 energy: -306.480806001700 gnorm: 0.000929668337 xtb: 6.7.1 (edcfbbe)
O            0.02470641114226        1.27555153975369        0.58644979084858
C           -0.06637974766735        0.17734795417606        0.10208052450354
O            0.98652938917499       -0.56537229495359       -0.28655948163232
C            2.26373371090313        0.04220869694071       -0.08846440332558
C           -1.31821822226165       -0.54594459071252       -0.15569050049787
C           -2.47990877222236        0.03352977074308        0.10288235575745
H            2.99306547575247       -0.66648768235227       -0.46948063071516
H            2.32567091987452        0.98280794357175       -0.63164709821435
H            2.43376530123144        0.23256126186069        0.96911669918409
H           -1.24086283229456       -1.54188769301678       -0.55976620824376
H           -2.49965226556584        1.03417189425360        0.50545560114947
H           -3.42245036806705       -0.45848780026443       -0.07437564881410
