12
 energy: -306.480816650100 gnorm: 0.000462323978 xtb: 6.7.1 (edcfbbe)
O            0.05527102220294        0.77605716350496        1.34573872902776
C            0.07887718470758        0.11320995913231        0.34102385812491
O           -1.01058660272569       -0.44233564876549       -0.22179944665383
C           -2.23859876814426       -0.19465828454964        0.46267215937243
C            1.27474280044745       -0.20939972543890       -0.44786510928591
C            2.45435793611925        0.26562855475934       -0.08078047883163
H           -2.43189069387029        0.87494004875060        0.52194549948348
H           -3.01054020267942       -0.68973588387504       -0.12022345813861
H           -2.20054065598248       -0.60354872867310        1.47077776447403
H            1.14139857267506       -0.83279079432768       -1.31663054949761
H            3.35803018448104        0.05631581928742       -0.63015843562138
H            2.52948022276883        0.88631752019521        0.79835246754636
