12
 energy: -306.480819634500 gnorm: 0.000365108717 xtb: 6.7.1 (edcfbbe)
O            0.00283255426016        1.15300852654965        0.83624590874549
C            0.07077853409568        0.17058883135777        0.14353923658841
O           -0.99727245798261       -0.54025772650445       -0.26413201072774
C           -2.25967162322599       -0.05099766629199        0.18912494468925
C            1.30568058051704       -0.42891886102352       -0.37840500722518
C            2.47667599225939        0.11566948575363       -0.08858615056340
H           -2.43221325745094        0.95743734692041       -0.18225410237798
H           -3.00460669413043       -0.73548935429906       -0.20713441145157
H           -2.29366686374845       -0.03799513783830        1.27676246188697
H            1.20732229870083       -1.31022321718240       -0.99039387171675
H            2.51629592461682        0.99868406422589        0.52957371829591
H            3.40784501208848       -0.29150629166763       -0.44816571614335
