12
 energy: -306.480815860200 gnorm: 0.000574144131 xtb: 6.7.1 (edcfbbe)
O            0.08750070109076       -0.37207456035142        1.31228884572949
C           -0.05801453229759       -0.06223758926095        0.15811944838974
O            0.95690190435037        0.14438893467751       -0.70127506109779
C            2.26284231705167       -0.03015556576989       -0.15064065822434
C           -1.34401113101941        0.14806161256152       -0.51889407803539
C           -2.47421831920502        0.02851698018055        0.15967454054650
H            2.38814142360696       -1.04823939775916        0.21313491183988
H            2.42305947133212        0.66223126677959        0.67368853920636
H            2.95771284079639        0.17440682391433       -0.96030972411562
H           -1.31739316503161        0.40085996061157       -1.56598507991674
H           -2.44273675329420       -0.22347291019030        1.20799702910593
H           -3.43978375738043        0.17771344460666       -0.29582571342805
