12
 energy: -306.478385941000 gnorm: 0.000464923642 xtb: 6.7.1 (edcfbbe)
O           -0.46238250696887       -1.73938368838049       -0.54065882362362
C            0.04885726142468       -0.68340696168976       -0.26846406016549
O           -0.62187516684424        0.35721478150119        0.26117358765061
C           -2.01332078448990        0.12569120553987        0.48902789691258
C            1.47213733453946       -0.38067470708224       -0.47436892467368
C            2.04772455942576        0.76811213507373       -0.15747536832644
H           -2.15161939736460       -0.68240658082328        1.20501216917656
H           -2.40804945519344        1.05741424745589        0.88506342774458
H           -2.51269182822919       -0.13610067131553       -0.44161992973249
H            2.02732135538756       -1.19534758889307       -0.91451480900536
H            1.47458667294144        1.56729791153154        0.28104783545615
H            3.09931195537130        0.94159091708228       -0.32422500141344
