12
 energy: -306.478380329200 gnorm: 0.000892318781 xtb: 6.7.1 (edcfbbe)
O            0.53770794666578        1.77667963875653       -0.29040873370761
C           -0.02390843959948        0.72210626235233       -0.13802184802090
O            0.60622851189578       -0.41710127824808        0.20620972661746
C            2.01988500275766       -0.29731064081694        0.37753271864778
C           -1.47060607415904        0.52725474600686       -0.30774593008747
C           -2.08604461723412       -0.64103391058333       -0.22074532612844
H            2.36991192607666       -1.28871071611142        0.65387622146557
H            2.24824509619654        0.42179172878671        1.16238587209607
H            2.48782447321649        0.02944934030043       -0.54974085395105
H           -2.00513774546127        1.43867829136655       -0.53087649997224
H           -1.53284919614295       -1.53806294809843        0.00093029645091
H           -3.15125688421204       -0.73374151371119       -0.36339664341007
