12
 energy: -306.478390120600 gnorm: 0.000611772459 xtb: 6.7.1 (edcfbbe)
O           -0.65435005363996       -0.75462220597393        1.24201534968667
C           -0.03409749086185       -0.24945877029841        0.34150401487533
O           -0.55595329267316        0.00878577553143       -0.87292277520903
C           -1.92649097199798       -0.36179450134475       -1.03286975486559
C            1.37460422961110        0.15770082240746        0.43883318930664
C            2.06645517473593        0.70614884222471       -0.54704706902842
H           -2.05075278982289       -1.43243134216274       -0.88288254807379
H           -2.19212356020527       -0.08580062972035       -2.04954150089935
H           -2.55016589525001        0.16999065044099       -0.31771180147070
H            1.81334180666881       -0.03377135403653        1.40685998106116
H            1.60860943396924        0.88762904418198       -1.50451928422097
H            3.10092440946604        0.98762466875010       -0.42738480116194
