12
 energy: -306.480820546400 gnorm: 0.000575437056 xtb: 6.7.1 (edcfbbe)
O            0.22470638205551        1.30261158395532       -0.19915724797197
C           -0.03733280849747        0.19748498648695        0.20004791926789
O            0.88341428152911       -0.69415843713867        0.61122756829489
C            2.23646902396891       -0.24337977877155        0.54242524961544
C           -1.38357752470063       -0.37850705142964        0.31197039912475
C           -2.43852142966805        0.33582424969980       -0.04684924885800
H            2.50229319293492        0.00482019222832       -0.48331232896695
H            2.37649310387074        0.63597855803284        1.16732935194706
H            2.84416394911449       -1.06797586418771        0.90385233240594
H           -1.46176218815087       -1.38447272667372        0.69004753883122
H           -2.30215577259075        1.33866721365644       -0.41956840149043
H           -3.44419020986587       -0.04689292585840        0.01752686780021
