12
 energy: -306.478384234700 gnorm: 0.000409323846 xtb: 6.7.1 (edcfbbe)
O            0.54117361227169       -1.77836208931199        0.24849031930948
C           -0.02154737465553       -0.72990324799208        0.06240375484205
O            0.61611945523481        0.45033807601506       -0.05340027818405
C            2.03873613257167        0.38220368852103        0.06474921731206
C           -1.47882593734103       -0.58964586659493       -0.06432827004752
C           -2.11014368627941        0.56186095473815       -0.22788868773672
H            2.32042493541040        0.01469922047270        1.04992713526068
H            2.45183070300938       -0.28124321140463       -0.69235821691909
H            2.39718150976944        1.39769786773667       -0.08033176628367
H           -2.00945890155697       -1.52814788514443       -0.00300306490501
H           -3.18452891200336        0.61418153980830       -0.30919838396182
H           -1.56096153643104        1.48632295315620       -0.28334675868633
