12
 energy: -306.478381950000 gnorm: 0.000787715898 xtb: 6.7.1 (edcfbbe)
O            0.45122085879250       -1.81468836989734       -0.18019473076309
C           -0.05562807206998       -0.73328370660532       -0.02630029609566
O            0.63541991625328        0.42250299261860       -0.02438020802857
C            2.04264634452461        0.28521418807287       -0.23060855914153
C           -1.49555912462969       -0.52046654316281        0.17590930149463
C           -2.06951337028818        0.66697633559456        0.28407956373845
H            2.48066577297496       -0.34356078895482        0.54201862224585
H            2.24225989886150       -0.15833311826856       -1.20427029370248
H            2.44941563879913        1.29136481601662       -0.17949621125344
H           -2.06554086473278       -1.43661449227913        0.21842908287514
H           -1.48133898534403        1.56740982982436        0.23358105463812
H           -3.13404801314139        0.77347885704090        0.42199667399257
