12
 energy: -306.480819210000 gnorm: 0.000597306348 xtb: 6.7.1 (edcfbbe)
O            0.07748341434518        1.13870804930537        0.75502662083657
C           -0.05899475377052        0.16287621981050        0.06300413596901
O            0.95702659183662       -0.48399637545738       -0.53783910316552
C            2.25174400759422        0.07046674159705       -0.30198547595876
C           -1.33386546766588       -0.49526794743024       -0.25027931782582
C           -2.46250424540188       -0.01758755116997        0.24978030976714
H            2.95078813693891       -0.56581706826075       -0.83778189168383
H            2.47594063629149        0.07232815687163        0.76286060263432
H            2.30142473176836        1.09132664758946       -0.67617084722564
H           -1.30000174346365       -1.36203310454572       -0.88960445051837
H           -3.42097753415786       -0.46620721751901        0.04440379302987
H           -2.43806277431489        0.85520344920914        0.88336162414110
