12
 energy: -306.480819291000 gnorm: 0.000629345004 xtb: 6.7.1 (edcfbbe)
O           -0.02008049961586        0.73825560076606        0.96093413638026
C            0.06767004642221       -0.13409376200163        0.13582892727363
O           -0.98201721576628       -0.82803378935950       -0.34302217993766
C           -2.25055533566481       -0.45768546814702        0.19647655403133
C            1.31015261378990       -0.60089995160763       -0.49240150110498
C            2.46480128488556       -0.04122887121725       -0.16796467947627
H           -2.26013622356616       -0.59595695160539        1.27609301716566
H           -2.97854444612715       -1.11023680293321       -0.27795191889816
H           -2.46925579113661        0.58470974071833       -0.02834300253525
H            1.23156360936818       -1.39899612814959       -1.21204793687725
H            2.48653984950708        0.75669576581902        0.55749500961413
H            3.39986210790393       -0.35221138228212       -0.60509642563545
