12
 energy: -306.480817156000 gnorm: 0.000698131450 xtb: 6.7.1 (edcfbbe)
O           -0.22085080683848       -1.32365185947179       -0.49391867837957
C            0.03830240178469       -0.20199410176511       -0.14173826926577
O           -0.88798585821002        0.72398590368361        0.16886822578120
C           -2.24306476393631        0.28887403301345        0.04763269534881
C            1.38653419187754        0.35940415151572        0.01330435887183
C            2.44547741095441       -0.38482678396476       -0.26428999113965
H           -2.85618669526342        1.14553516425433        0.31356105971581
H           -2.45027001195675       -0.02665703069992       -0.97339510533728
H           -2.43643079137359       -0.54343187905454        0.72191185601779
H            1.46180764646084        1.37989271962150        0.35134935961818
H            3.45366288893176       -0.01588386565661       -0.16758102080815
H            2.30900638756946       -1.40124745147587       -0.59921249042323
