12
 energy: -306.478383144400 gnorm: 0.000866378685 xtb: 6.7.1 (edcfbbe)
O            0.72358885562800       -0.43181695105157       -1.69899665161382
C            0.05342670804198       -0.21532844843114       -0.72188252154374
O            0.56482435109982       -0.03895509910376        0.51133619201783
C            1.98860592876449       -0.12535024510299        0.59271153295709
C           -1.41251593721721       -0.11016551189451       -0.73560712340479
C           -2.15599598663375        0.14590766506222        0.32878589415101
H            2.33241411507666       -1.09312598787247        0.23239933013845
H            2.45148143189384        0.65967298325471       -0.00310790213980
H            2.23353238611577       -0.00071184879236        1.64405041807884
H           -1.84667267338712       -0.26106698035797       -1.71265583668175
H           -3.23100577032629        0.21155470786890        0.26879523233086
H           -1.70168440905611        0.29256671642096        1.29417043570995
