12
 energy: -306.478378875600 gnorm: 0.000455494059 xtb: 6.7.1 (edcfbbe)
O            0.74122981370785       -1.48207531014649       -0.93469391842814
C            0.06018315631848       -0.62438552295386       -0.43303957774432
O            0.55481526647319        0.38381578394862        0.31032755186915
C            1.97487192624903        0.37777995973222        0.46725365531007
C           -1.40216246074904       -0.55442833045621       -0.56109831231635
C           -2.14973261249628        0.43059694776387       -0.08969115106904
H            2.30091124199345       -0.54368057188139        0.94564769958895
H            2.20759999242393        1.23532103445311        1.09262890731961
H            2.46458625142253        0.46704438681015       -0.50051510310870
H           -1.82860946458197       -1.38692639113991       -1.10085960012127
H           -1.70309256165038        1.25367441489218        0.44197912115508
H           -3.22060154911073        0.44326459897763       -0.21934727245504
