12
 energy: -306.478384787700 gnorm: 0.000423535180 xtb: 6.7.1 (edcfbbe)
O           -0.64268698387983        0.71043026743287        1.61726879388824
C           -0.01894646719450        0.29656813660857        0.67382099041949
O           -0.58964928280255       -0.21655188538359       -0.43259377105906
C           -2.01816636794280       -0.23719014287673       -0.42177286219325
C            1.44855731635223        0.29193541656421        0.59527749783460
C            2.14191588367391       -0.14037925416860       -0.44562815580319
H           -2.31485015827142       -0.70454349389675       -1.35679725876419
H           -2.41206967838990        0.77568973106539       -0.35955107183670
H           -2.38440954063573       -0.81262747381138        0.42625560290189
H            1.92930551046727        0.68543932886080        1.47853241384594
H            3.22035813549824       -0.12125349273061       -0.45841972308749
H            1.64064063312504       -0.52751613766409       -1.31639245614620
