12
 energy: -306.478387636500 gnorm: 0.000264202308 xtb: 6.7.1 (edcfbbe)
O           -0.33340135505459       -1.72602019489382       -0.63614261042931
C            0.10378482195045       -0.69197601188667       -0.19997787587974
O           -0.66071830289739        0.37490034226856        0.10123133643759
C           -2.05839471583382        0.20391187017550       -0.14029875205709
C            1.52853009916815       -0.44655773025271        0.06396030052402
C            2.02231989014409        0.69797897118752        0.50852526296667
H           -2.24043706850507        0.00614832791704       -1.19489126734854
H           -2.52719202912717        1.13740790156712        0.15891931168482
H           -2.44755476198986       -0.62492525867377        0.44791560798961
H            2.15973050307287       -1.29706044255243       -0.14674692966362
H            1.37477614489954        1.53431611109125        0.71004914501379
H            3.07855777417282        0.83187511405240        0.68210547076179
