12
 energy: -306.480817098900 gnorm: 0.000627195444 xtb: 6.7.1 (edcfbbe)
O           -0.01443561923506       -0.61616402340965        1.17239732243890
C            0.06846288109273       -0.08499339614472        0.09508382610703
O           -0.99165534987907        0.28574816461046       -0.64730909972407
C           -2.26521272077771        0.00301537838188       -0.06808383927934
C            1.31556811989845        0.25178199757296       -0.60359385186260
C            2.48171075705642       -0.04262554287385       -0.05085617624987
H           -2.38329859389528        0.54032781041045        0.87131242369644
H           -2.36892370262371       -1.06408754484087        0.11974424566528
H           -3.00323672920172        0.33619602061262       -0.79278318731108
H            1.23097719775385        0.73560864157373       -1.56293604707793
H            3.42063747192560        0.18549364520838       -0.52886107692412
H            2.50940628788549       -0.53030115110140        0.91085146052136
