12
 energy: -306.480820247700 gnorm: 0.000377161765 xtb: 6.7.1 (edcfbbe)
O            0.13756597559675        1.36814340595319       -0.36599108915836
C            0.09012958218782        0.18997521184253       -0.12254085095487
O           -1.05338133387860       -0.50062926222611        0.04408380814269
C           -2.25012928712970        0.26690235962656       -0.08988813810355
C            1.24681311110729       -0.70093668394345        0.03636476171208
C            2.47287328027926       -0.21926722645542       -0.09347800593523
H           -3.06951357732247       -0.43087248717521        0.05875134106787
H           -2.30510633817310        0.71566105531282       -1.08002244781344
H           -2.28065105320263        1.05679000702687        0.65852907007719
H            1.04697825147228       -1.73656705961359        0.25710453169041
H            2.61430862122925        0.82705061253009       -0.31485884403488
H            3.35011376783386       -0.83624893287827        0.01436386331008
