12
 energy: -306.480820200300 gnorm: 0.000720074022 xtb: 6.7.1 (edcfbbe)
O            0.04717402644490        0.85847676346400        1.31679773270929
C           -0.06299325348595        0.11620944882169        0.37560465892268
O            0.96958255639697       -0.30390632077547       -0.37889378508216
C            2.24795930000007        0.19974727502107        0.00891366630225
C           -1.31854495023301       -0.46086715695464       -0.12138865975178
C           -2.46138140133602       -0.17100074137756        0.48022867409926
H            2.26211365893812        1.28625115030873       -0.05098710310539
H            2.96171365046697       -0.22914565563667       -0.68929779108309
H            2.48241301187659       -0.10184346671395        1.02774927441866
H           -1.25842330244898       -1.11160409709426       -0.97807709644367
H           -3.40636549207510       -0.56982433297036        0.14766285649314
H           -2.46324680454464        0.48750813390755        1.33455157252079
