12
 energy: -306.480819983800 gnorm: 0.000544026717 xtb: 6.7.1 (edcfbbe)
O           -0.44300131190304        0.40935832700408        1.26786449611082
C           -0.11141693192009        0.10182050332889        0.15226473425537
O            0.82778139383820       -0.82093031833147       -0.12828043862418
C            1.43470866757430       -1.43339476330608        1.00987694544810
C           -0.65570971428416        0.66253767376627       -1.09104303473367
C           -1.59282517996865        1.59596115290038       -1.03842655076246
H            0.68892896214230       -1.96249424672482        1.59998272648565
H            1.91309535806248       -0.68226740587596        1.63521819646360
H            2.17191896305091       -2.12814498329380        0.61696703841063
H           -0.26043058761671        0.28428041901548       -2.01945857427685
H           -1.95289165056109        1.93688962736049       -0.08027893441815
H           -2.02015696841442        2.03638401415651       -1.92468760435888
