12
 energy: -306.480820040000 gnorm: 0.000704257372 xtb: 6.7.1 (edcfbbe)
O           -0.10528638831162        0.97584174749465       -1.24022590225239
C            0.05526290713998        0.14189570023210       -0.38690915843618
O           -0.94894567477323       -0.47550636277069        0.26287572464906
C           -2.26202879641869       -0.07138417455833       -0.12545741188991
C            1.35004328827112       -0.35166598723842        0.09905330423176
C            2.47320193790532        0.13365486044456       -0.40586490065070
H           -2.42408800147026       -0.27097375398604       -1.18262924718516
H           -2.40249844973202        0.99135852356315        0.05916981288577
H           -2.94611165513086       -0.65715646648375        0.48179207066147
H            1.33516274107255       -1.10704187784519        0.86727500409990
H            3.44478160663030       -0.19877102031591       -0.07781573956696
H            2.43050648481740        0.88974881146384       -1.17393955654667
