12
 energy: -306.478377611300 gnorm: 0.000347074907 xtb: 6.7.1 (edcfbbe)
O            0.63017030271205       -1.66166365818994       -0.88533675249566
C            0.01367032876915       -0.69450036232065       -0.51772081310259
O            0.58415917060812        0.49092816080578       -0.22987589093007
C            2.00392975125849        0.53131272567353       -0.38584903596389
C           -1.44339485960564       -0.67050837340648       -0.32832044984914
C           -2.11898223118233        0.35542500795215        0.16382931945963
H            2.28041666246784        0.29755722675127       -1.41221593663008
H            2.47993373814356       -0.18519188717607        0.28117558839571
H            2.30160115404526        1.54532502175898       -0.13245087488215
H           -1.93087748412087       -1.59064014622674       -0.61457890183166
H           -3.18894260393044        0.32026435118461        0.29655262822673
H           -1.61168292916519        1.26169193319356        0.44816411960316
