12
 energy: -306.478382204800 gnorm: 0.000414356123 xtb: 6.7.1 (edcfbbe)
O            0.33282598392456       -1.83619231986603        0.44153628287711
C           -0.10636944105798       -0.72397614872303        0.29821737046836
O            0.65987707441733        0.38239042808491        0.25508243977289
C            2.06357447312126        0.15059756153313        0.38817651525656
C           -1.53570939609902       -0.41620997850425        0.15063024360791
C           -2.02372540120470        0.79530014270730       -0.06232793664190
H            2.52954976159503        1.13193343775719        0.36363955009665
H            2.42617597423838       -0.46497855739972       -0.43302478363543
H            2.27859227773188       -0.35143338011310        1.32933190007025
H           -2.17370627490704       -1.28457988245167        0.22116096064577
H           -1.36856261888060        1.64682240800960       -0.13221618122502
H           -3.08252141287908        0.97032628896563       -0.17243636129315
