12
 energy: -306.480810333500 gnorm: 0.000591717404 xtb: 6.7.1 (edcfbbe)
O            0.07090773677280        1.38439953574948       -0.09090984687298
C           -0.05909910155414        0.19976979111643        0.07965043635605
O            0.96397316328231       -0.64739089192354        0.29719027757177
C            2.25712072637365       -0.04289602288148        0.31321904968854
C           -1.33181508633301       -0.53264769835636        0.08700198260080
C           -2.47108318157777        0.12492601433357       -0.06010641834195
H            2.46855813428891        0.42651783682439       -0.64561404141832
H            2.31471698590093        0.71069465898532        1.09634609709623
H            2.96066137148076       -0.84786029100298        0.50648502897908
H           -1.28851553731454       -1.60127983629080        0.22008519372242
H           -2.45684423642741        1.19615867226861       -0.18518402768316
H           -3.42858097489250       -0.37039076882264       -0.05542673169850
