12
 energy: -306.480819568000 gnorm: 0.000977553776 xtb: 6.7.1 (edcfbbe)
O            0.01121835728522        1.31037791873513        0.33234461914065
C           -0.06890053726007        0.18814708944498       -0.09699091781825
O            0.99235204310005       -0.56825941511192       -0.43387973584826
C            2.26351273057844        0.05510283149719       -0.24909623286276
C           -1.31355262276473       -0.55476978168665       -0.33352318381277
C           -2.47973782814733        0.00965816455535       -0.06368064608199
H            2.40678490181646        0.32471765374334        0.79528170814220
H            3.00266861863680       -0.67803224703617       -0.55829603554949
H            2.33792275244806        0.95310783040416       -0.85918466751580
H           -1.22665964530722       -1.55432341828785       -0.72609989687148
H           -3.41729260131534       -0.49899217885128       -0.21941199554183
H           -2.50831516907038        1.01326455259368        0.32992198461976
