12
 energy: -306.480819832100 gnorm: 0.000705975039 xtb: 6.7.1 (edcfbbe)
O           -0.06191247010994       -1.39660129361518       -0.12746848225276
C            0.06203342362796       -0.20436219544586       -0.01354365658988
O           -0.96913980250506        0.66004605071455        0.03433105412488
C           -2.26319413363248        0.06528399057912       -0.06515182572789
C            1.33452735985602        0.52114410071525        0.09245497250903
C            2.47720199051027       -0.14645419824750        0.06155783116166
H           -2.36446272172790       -0.46813631664947       -1.00856738667265
H           -2.97370611983382        0.88564880168802       -0.01409413879050
H           -2.42550649986870       -0.63184750478506        0.75476330196473
H            1.28557358296773        1.59285009819156        0.19153377773067
H            2.46364519132912       -1.22005679804604       -0.04153914361477
H            3.43494019938683        0.34248426490059        0.13572369615746
