12
 energy: -306.478389114800 gnorm: 0.000367486717 xtb: 6.7.1 (edcfbbe)
O           -0.39613651556814       -1.33029120394070        1.23822519638376
C            0.08119627026043       -0.53554678975289        0.46939456804806
O           -0.64969520654138        0.31250358590820       -0.27882972254806
C           -2.06373717721538        0.20820545527337       -0.10297907543539
C            1.52405514646930       -0.37893454983195        0.23798448947543
C            2.05762449909922        0.48732209430855       -0.60834536174972
H           -2.33387158207499        0.40475523985130        0.93281865005118
H           -2.40819392574274       -0.78754789797091       -0.37614470866861
H           -2.49987194096354        0.95609963768322       -0.75959630362111
H            2.13134316888960       -1.04728787507398        0.83015859407163
H            1.43235845552308        1.14475604495390       -1.18811731445365
H            3.12492880786456        0.56596725859189       -0.74437801155353
