12
 energy: -306.480820126700 gnorm: 0.000924459392 xtb: 6.7.1 (edcfbbe)
O            0.04848099077884        0.87139067173766       -1.09935562907011
C           -0.06285566903813        0.13436028411064       -0.15398490954184
O            0.96127861352150       -0.53981416129297        0.40167049618606
C            2.23262134990772       -0.32321504578862       -0.21113815763786
C           -1.31102767483467       -0.16386436386326        0.55980909675878
C           -2.44314555291809        0.40336795137996        0.17439387420266
H            2.94039444333516       -0.93122418701673        0.34562607534403
H            2.20722977874999       -0.62661802731392       -1.25672153201666
H            2.50605682012103        0.72820866739881       -0.15578989119123
H           -1.25542551155365       -0.84861593628306        1.38983229740710
H           -2.44194981668840        1.08201293033331       -0.66404679415132
H           -3.38165777138133        0.21401221659818        0.66970507371041
