12
 energy: -306.480814659200 gnorm: 0.000572413011 xtb: 6.7.1 (edcfbbe)
O            0.01659984969995       -1.25027969258706        0.63814454963250
C           -0.06526115395249       -0.19111928686266        0.07195197445749
O            0.97637068016655        0.63618122604372       -0.13420874525099
C            2.22777007173923        0.17160053737179        0.37221315869569
C           -1.29145482859026        0.39114256399456       -0.48791340048629
C           -2.44403344017387       -0.24636613154816       -0.35694997714295
H            2.50348287262766       -0.76870549836386       -0.10110922049641
H            2.17024762820775        0.02250153549135        1.44848633232796
H            2.95229814854042        0.94489200791719        0.13332441105207
H           -1.20327301778093        1.33928268958628       -0.99225190423101
H           -2.47433293680169       -1.19345412451506        0.15868058299706
H           -3.36841387368231        0.14432217347192       -0.75036876155511
