12
 energy: -306.478385117600 gnorm: 0.000714694830 xtb: 6.7.1 (edcfbbe)
O            0.35821669720595       -1.57786055391191       -0.95725924227227
C           -0.08432487220750       -0.66173856830852       -0.31225200970711
O            0.59943379571689        0.46945876764455       -0.05348423680314
C            1.92238423570653        0.51193271764234       -0.59177548764474
C           -1.42686959690833       -0.64795344272528        0.28510856084168
C           -1.90591474314304        0.33534994535161        1.03014354173621
H            2.33139069118863        1.47428396937585       -0.29719517983575
H            1.89574571455065        0.42342709665421       -1.67588213094767
H            2.52360091635909       -0.29874422720588       -0.18510129175552
H           -2.00483469737014       -1.53465368675433        0.07056209210395
H           -1.31164840071879        1.21031147636128        1.23312247667310
H           -2.89718074038001        0.29618750587614        1.45401290761133
