12
 energy: -306.480820636200 gnorm: 0.000597153832 xtb: 6.7.1 (edcfbbe)
O            0.03849045230643       -1.32919218645473        0.46188313587013
C           -0.06463515900419       -0.19589516543231        0.06819615787647
O            0.97535740981033        0.64181512386942       -0.10063806269092
C            2.25368670498056        0.09403380809485        0.22281837091010
C           -1.31874674334763        0.47612886470157       -0.29547354568917
C           -2.46766654444632       -0.17393448724093       -0.19817039625663
H            2.97296456653606        0.88806779826091        0.04137716520637
H            2.46827253787108       -0.76678627623449       -0.40718392942017
H            2.28213698051194       -0.21466500942152        1.26598593286173
H           -1.25308144769388        1.49659528966808       -0.63499762837469
H           -2.47503139235050       -1.19550105464421        0.14801656055157
H           -3.41174736517391        0.27933229483336       -0.45359776084478
