12
 energy: -306.480811781300 gnorm: 0.000646301089 xtb: 6.7.1 (edcfbbe)
O           -0.04888210590034       -1.38219932841122       -0.24898558640795
C            0.06113518885490       -0.19768009732108       -0.06433542775355
O           -0.96848892969071        0.61964449992754        0.22358362157224
C           -2.24461527096211       -0.01699069397170        0.30171238233162
C            1.31445975419066        0.56601154971634       -0.11380385219687
C            2.45968410779480       -0.05938688280435       -0.33615972307319
H           -2.49882927909017       -0.47590529194744       -0.65169815764715
H           -2.95421428009705        0.76763269892554        0.54829409833671
H           -2.23975683874936       -0.78407757532768        1.07352522250987
H            1.25223623575990        1.63063023587260        0.04086149716564
H            2.46414928124723       -1.12812714655554       -0.48300760065682
H            3.40312013664224        0.46044803189703       -0.37743847418059
