12
 energy: -306.478380872800 gnorm: 0.000675253165 xtb: 6.7.1 (edcfbbe)
O           -0.32478413622463        0.55482219030833       -1.76630758219348
C            0.09996206401678        0.15596046366204       -0.71232416622225
O           -0.63004842627079        0.10590945150428        0.41801375229063
C           -1.97825524964653        0.56087132863221        0.28751738551389
C            1.47110308948159       -0.33253284560851       -0.51054830111366
C            1.94277341224966       -0.79309921584838        0.63703458049590
H           -2.00014481199538        1.58694918628786       -0.07430986712008
H           -2.52674665796945       -0.07259226558093       -0.40707489233342
H           -2.40933345078783        0.49771717177506        1.28323226629666
H            2.07971401494829       -0.28883611975080       -1.40168103083456
H            1.31790544527326       -0.82983568447884        1.51311209914229
H            2.95785670692511       -1.14533466090244        0.73333675607806
