12
 energy: -306.480814659600 gnorm: 0.000572189873 xtb: 6.7.1 (edcfbbe)
O            0.01660005103313       -1.25027987456091        0.63814420761403
C           -0.06526110880887       -0.19111921729243        0.07195195949383
O            0.97637067729206        0.63618139612568       -0.13420864584025
C            2.22777002404238        0.17160054715389        0.37221320187935
C           -1.29145486951521        0.39114265477791       -0.48791317514933
C           -2.44403341185139       -0.24636623462472       -0.35695011130100
H            2.50348217005333       -0.76870618491003       -0.10110857445656
H            2.17024780599224        0.02250252374334        1.44848673276941
H            2.95229845449595        0.94489164723019        0.13332338730749
H           -1.20327307633071        1.33928302263218       -0.99225128127487
H           -2.47433285321956       -1.19345444112990        0.15868009641434
H           -3.36841386318335        0.14432216085481       -0.75036879745641
