12
 energy: -306.478378898700 gnorm: 0.000675882790 xtb: 6.7.1 (edcfbbe)
O           -0.25618783376098       -1.62932488464405        1.00865549660763
C            0.13402029724595       -0.65000627195243        0.42572613820750
O           -0.67938785349988        0.31816258600820       -0.03708294407818
C           -2.06993809819764        0.11119622265641        0.21703570769797
C            1.54844868515399       -0.36976934189662        0.14228891476822
C            1.99489524438311        0.74190141882005       -0.42010557659838
H           -2.58133803887167        0.96435038204520       -0.22029603726613
H           -2.40755380089923       -0.81466855683580       -0.24515810830470
H           -2.25622608917172        0.06108721240170        1.28805480824996
H            2.21554909486802       -1.15982749749368        0.45357426233496
H            1.31147880498215        1.51947527071696       -0.71650920800085
H            3.04624058776792        0.90742346017408       -0.59580445361800
