12
 energy: -306.478387604600 gnorm: 0.000886456475 xtb: 6.7.1 (edcfbbe)
O            0.75033122613068       -1.13705286364216       -1.50314527621249
C            0.06641767959321       -0.50839009698484       -0.73639980554671
O            0.55537909094563        0.40113899734592        0.12873803441550
C            1.97130204657247        0.58409593733207        0.07497845522347
C           -1.39330333307173       -0.64185307880903       -0.63484744869465
C           -2.15548447859709        0.05635449832208        0.19163150736816
H            2.20327287540752        1.32753052441378        0.83310533840600
H            2.48445373758463       -0.35199135402354        0.28751931364995
H            2.27096387281755        0.93695836337089       -0.91019764618782
H           -1.80723659039522       -1.37425323429806       -1.31195677464044
H           -3.22552469660056       -0.07567812571549        0.22526984426101
H           -1.72057143038710        0.78314143268840        0.85651345795802
