12
 energy: -306.480817098700 gnorm: 0.000627174333 xtb: 6.7.1 (edcfbbe)
O           -0.01443560262846       -0.61616463581287        1.17239702878620
C            0.06846288236463       -0.08499357952636        0.09508374662599
O           -0.99165534831004        0.28574828689830       -0.64730901962142
C           -2.26521274338983        0.00301547539671       -0.06808379378786
C            1.31556812362318        0.25178207273203       -0.60359380117989
C            2.48171076334330       -0.04262559968487       -0.05085620794987
H           -2.38329902833522        0.54032875428561        0.87131191841660
H           -2.36892333448317       -1.06408729783561        0.11974526768619
H           -3.00323671784998        0.33619515611079       -0.79278358642962
H            1.23097721426784        0.73560907857879       -1.56293580191725
H            3.42063748003162        0.18549379656315       -0.52886101715763
H            2.50940631136612       -0.53030150770567        0.91085126652855
