12
 energy: -306.480820547300 gnorm: 0.000574406831 xtb: 6.7.1 (edcfbbe)
O            0.22470649598212        1.30261099838588       -0.19915686179309
C           -0.03733281822506        0.19748441444329        0.20004748201680
O            0.88341436433631       -0.69415867386268        0.61122777682840
C            2.23646898488208       -0.24338051557962        0.54242559836908
C           -1.38357737501910       -0.37850748080945        0.31196987018895
C           -2.43852136601632        0.33582427428442       -0.04684930365790
H            2.50229365375706        0.00481649907939       -0.48331159301257
H            2.37649151450743        0.63598245725663        1.16732600651597
H            2.84416402079517       -1.06797452806549        0.90385468137363
H           -1.46176141833744       -1.38447405290779        0.69004503002121
H           -2.30215583169178        1.33866863457502       -0.41956561203430
H           -3.44419022497047       -0.04689202679962        0.01752692518386
