12
 energy: -306.478386822500 gnorm: 0.000864867672 xtb: 6.7.1 (edcfbbe)
O            0.50722940461674       -1.70859518664008        0.75020572218422
C           -0.03641770128862       -0.69981641050432        0.37926973150373
O            0.62461853481142        0.41818446617485        0.02470739934407
C            2.04771365352861        0.33684102048009        0.12441475700068
C           -1.49317957871107       -0.54516217429798        0.25948945396964
C           -2.10043650011549        0.56917163003303       -0.11517014157065
H            2.34519661147800        0.14111083249834        1.15258486276521
H            2.42873094759262       -0.45892677104050       -0.51278140531303
H            2.42420268689187        1.30141337658479       -0.20463528945585
H           -2.04356854261661       -1.43793503770011        0.51621725879085
H           -1.52933038515273        1.44717032731721       -0.36557306722501
H           -3.17475913103475        0.63654292709468       -0.18363528199387
