12
 energy: -306.480815860300 gnorm: 0.000574153553 xtb: 6.7.1 (edcfbbe)
O            0.08750065575080       -0.37207419947145        1.31228898498720
C           -0.05801454997395       -0.06223744721390        0.15811952986968
O            0.95690188946113        0.14438867637133       -0.70127504735838
C            2.26284233153657       -0.03015565720593       -0.15064068246691
C           -1.34401113281021        0.14806175809919       -0.51889401725538
C           -2.47421836018390        0.02851680069550        0.15967447752602
H            2.38814150529104       -1.04823934558039        0.21313512622142
H            2.42305957516818        0.66223137196715        0.67368832004357
H            2.95771274620915        0.17440655469742       -0.96030988324500
H           -1.31739306393051        0.40086043702424       -1.56598493443792
H           -2.44273682191572       -0.22347324328615        1.20799692320034
H           -3.43978377460256        0.17771329390298       -0.29582579708466
