12
 energy: -19.722992830851 gnorm: 0.000510485735 xtb: 6.7.1 (edcfbbe)
O            0.32059469510620       -1.73122109309041        0.49493129856023
C           -0.10955558406607       -0.68393838767255        0.07806864771866
O            0.67451352959378        0.36086086123145       -0.22955217446362
C            2.06681706105683        0.16571938393559       -0.03755221673629
C           -1.54664551339761       -0.41382116601628       -0.14393347393437
C           -2.02222695615376        0.73408198898218       -0.60332612041009
H            2.27031421369639       -0.13682572537295        0.99174490455601
H            2.54116449964401        1.11857408628224       -0.25809769598921
H            2.43777936999840       -0.61104959273705       -0.70970395168234
H           -2.18795180504631       -1.24729088837472        0.10429325094904
H           -1.36709428737734        1.55416987786845       -0.84372205115617
H           -3.07770822305452        0.89074065496406       -0.75086141741184
