12
 energy: -19.722993521482 gnorm: 0.000482541494 xtb: 6.7.1 (edcfbbe)
O            0.66700312802523       -1.64848323399040        0.42679706873361
C            0.03208024541547       -0.69786516550700        0.04110147118268
O            0.58945084479833        0.48772654603263       -0.24972846560406
C            1.99528223159961        0.56882221591257       -0.07506157834715
C           -1.43300121594052       -0.71306259998040       -0.16084666122064
C           -2.13544612115427        0.33066267301668       -0.57557577444437
H            2.28823781489686        1.55829260837122       -0.41678124428055
H            2.49678036379481       -0.20484834695440       -0.66029683875193
H            2.25557161641669        0.43447095026872        0.97715226487256
H           -1.89134030582715       -1.66546022864905        0.06427224777354
H           -1.66156004174926        1.27296586081868       -0.79261863817771
H           -3.20305856027578        0.27677972066075       -0.70804685173598
