22
 energy: -34.615242826582 gnorm: 0.000562531276 xtb: 6.7.1 (edcfbbe)
C           -4.76122525513065        0.29772499862406        0.54745999352063
O           -3.37660327182407        0.56081883024094        0.70321567738545
C           -2.54610178620984       -0.18406828563529       -0.05165134193360
O           -2.93364086856111       -1.02940655141818       -0.82243577559850
C           -1.14647423543499        0.17805611476515        0.19804328130091
C           -0.15408699582798       -0.44571559478785       -0.44917974064648
C            1.26912379530695       -0.20839519658582       -0.31387093396591
C            2.15513571696657       -0.96938656854801       -1.08240169141641
C            3.51995654611943       -0.78002169350039       -0.98733772483673
C            4.02951170104776        0.17432643802779       -0.12185873644176
C            3.16404460293456        0.93709260321213        0.64693445096364
C            1.79921134953566        0.75016095024862        0.55416404985600
H           -5.07281511871580        0.49781888709244       -0.48007887812247
H           -4.97784014232175       -0.74718044775871        0.78055620139136
H           -5.27749661316379        0.95883164151067        1.23873055514019
H           -0.99460068821054        0.96117045533601        0.92330544923310
H           -0.43991423393900       -1.21733188132239       -1.15499229885683
H            1.76032718672858       -1.71439871648661       -1.75809075833039
H            4.19000979129428       -1.37697810671779       -1.58849917793363
H            5.09625907443350        0.32379594570769       -0.04594946326367
H            3.55881133534038        1.68185627047483        1.32255184054264
H            1.13840610963187        1.35122990752072        1.15880902201249
