19
 energy: -30.113867258277 gnorm: 0.000555448660 xtb: 6.7.1 (edcfbbe)
C           -2.02845516096947       -0.34936872101443        1.10380532878943
C           -1.73862469516861       -0.49262170508540       -0.38478275094057
O           -2.93794515367879       -0.24964444860870       -1.08244517820567
C           -0.64606237238576        0.49104271175833       -0.82640143461467
O            0.57993498301896        0.09660630240906       -0.22535321539869
C            1.63772403809468        0.88390164129449       -0.47266875519237
O            1.58179404867679        1.86573963525234       -1.17129979332946
C            2.87010545124306        0.41799003033709        0.19947984204414
C            2.93497691156569       -0.66453528903894        0.96020876287933
H           -1.11371979641019       -0.48983722351291        1.67150795195191
H           -2.43107575013165        0.64028382871896        1.30054962434090
H           -2.76332774643832       -1.08901639912256        1.40746332495816
H           -1.37682562493318       -1.51349148202862       -0.59070579676136
H           -2.78894472041205       -0.34167610105620       -2.02946106446487
H           -0.53142117707597        0.48465938657279       -1.91865356523663
H           -0.89749580214056        1.51275108676024       -0.52022897229452
H            3.72908328210394        1.04693417590167        0.01462497383818
H            3.85286744206903       -0.97016133967973        1.43340957942697
H            2.06741184297253       -1.27955708985752        1.13095213820959
