47
 energy: -74.313994763510 gnorm: 0.000259723408 xtb: 6.7.1 (edcfbbe)
O            7.97842756760441       -0.39085920662298       -2.49527665605023
C            7.93078399738749       -0.36034510796255       -1.09676797659497
C            6.62202848558077       -0.90064744766896       -0.51320394325206
O            5.58694396416004       -0.00333513481777       -0.84702481997985
C            4.32713472815230       -0.25272348779183       -0.41875542795030
C            3.93953433844613       -1.34884127454709        0.34883873701767
C            2.62099439717978       -1.48545067933554        0.73474345622790
C            1.64854405649208       -0.54791532012046        0.37763782260729
C            0.29318231886937       -0.73244631459478        0.83421037093172
C           -0.75900757883268        0.07735665533720        0.61728833513420
C           -2.05500774767444       -0.23500338025519        1.20377416440123
C           -3.21774000483616        0.72587035545719        0.84726142544045
O           -2.67695210340307        1.95979380869909        0.41697894015248
C           -3.64389117305268        2.90150257130939       -0.00587334591473
O           -4.09845451906816        0.90994298837085        1.92366100131792
C           -3.49354823387372        1.36371845665904        3.11904299538435
C           -3.95204388825425       -0.00849292175620       -0.26433774415070
C           -5.11133658093813       -0.72204751425507        0.00232872099731
C           -5.74830691908140       -1.40763360537429       -1.01675181960244
C           -5.23016990637790       -1.39127568588649       -2.30058539221941
C           -4.06644090997645       -0.68868744326990       -2.56469798361328
C           -3.42415876827310       -0.00285264929538       -1.54981726784807
O           -2.26853824677084       -1.19665465348930        1.91345472088532
C            2.05250791631024        0.54492587049434       -0.40229378532274
C            3.36104418955824        0.68905492352596       -0.79207566557775
H            7.79536461163239       -1.28548999417097       -2.80495830148039
H            8.76370297729566       -0.93378350953972       -0.66182439374760
H            8.03899145454633        0.69056665075339       -0.82195460339712
H            6.72397066718451       -0.98413823209842        0.57754090635411
H            6.41115876487738       -1.89843231934120       -0.92782245205975
H            4.65603020789670       -2.09614339929390        0.65279896408558
H            2.33487177620168       -2.33846412337831        1.33293683904452
H            0.10976570079254       -1.62107916566895        1.42819081488416
H           -0.69241317966410        0.99016322737362        0.05088575453257
H           -4.40345497630093        3.05765351546658        0.76445995696652
H           -4.13501475308482        2.57636746565507       -0.92854407497490
H           -3.09909702860588        3.82701438231077       -0.18176748277631
H           -2.82819034201341        2.21122573247479        2.92707918029468
H           -2.92932054550089        0.56251748636603        3.60440918061676
H           -4.31268330105342        1.67646324740723        3.76423532530213
H           -5.50345287170410       -0.72827005168510        1.00589358871109
H           -6.65320319872316       -1.95831540642236       -0.80599374393966
H           -5.72970210744848       -1.92776407017194       -3.09400184780834
H           -3.65457591677161       -0.67698293114337       -3.56331368957631
H           -2.51548217289001        0.54518041405933       -1.75202469227673
H            1.32874284874951        1.28650461723209       -0.70048544210335
H            3.67845900526204        1.52825366097368       -1.39060764908600
