47
 energy: -74.313149313990 gnorm: 0.000659534553 xtb: 6.7.1 (edcfbbe)
O            8.16908387569826        0.26624154540456        1.18591707576931
C            7.38990774679591       -0.82909465685883        1.57553479800639
C            5.88242398504225       -0.57327489379902        1.48975054822949
O            5.53140106796134       -0.46307288074001        0.12847993977287
C            4.23656158234509       -0.26046197014072       -0.21013324280362
C            3.97092619048307       -0.18531588621748       -1.58165863533535
C            2.68771089003474        0.00328525231653       -2.03330029383234
C            1.61480354094259        0.13319377092647       -1.14007252336933
C            0.28069731105788        0.31023764641905       -1.65977554544167
C           -0.84442457103151        0.52850271352440       -0.95738535227668
C           -2.13313857843032        0.65247554027622       -1.63211597399150
C           -3.30820156000340        0.89132372750502       -0.64855863617346
O           -4.43286362054924        1.24995327700250       -1.40604244695412
C           -5.63559467851362        1.33086641193663       -0.67001268271162
O           -2.99572069553584        1.87668301153142        0.31462374635183
C           -2.70572501201396        3.14623038084717       -0.23635609853699
C           -3.47183468192296       -0.44955616378742        0.04902041515132
C           -3.92577494796889       -1.52868517885198       -0.70045844722608
C           -4.06639867160531       -2.77031001288078       -0.10887124244497
C           -3.74826574781335       -2.94287032144600        1.22833330785685
C           -3.29346495987270       -1.86867657343644        1.97349041578300
C           -3.15289628866180       -0.62250720249395        1.38776058549914
O           -2.30753629533999        0.51528352971326       -2.82094542433794
C            1.89501217400749        0.06413130619281        0.22647675598562
C            3.18025026374001       -0.13092063082609        0.69010715173152
H            7.91369211690762        1.04247046618227        1.69771752240181
H            7.65547319947674       -1.63708905681246        0.89118159192397
H            7.62899791290831       -1.13605544084813        2.60532419020522
H            5.34885119865521       -1.41150550130386        1.95861411813376
H            5.62947989600848        0.35393962236142        2.02658809441367
H            4.79912993320548       -0.28449344524860       -2.26510867005276
H            2.49830799728956        0.05421920715605       -3.09532305379066
H            0.17945566131654        0.25375290876746       -2.73778816667327
H           -0.85646947825055        0.62078418730488        0.11704495050130
H           -6.37092506196947        1.75628722830988       -1.34974703695599
H           -5.51998450763276        1.97774536766624        0.20508092379873
H           -5.96673499254049        0.34089524527701       -0.33867551250119
H           -2.68439410924797        3.83906530528693        0.60292099448424
H           -3.47530385403767        3.44969694755413       -0.95049318356326
H           -1.73333366710900        3.14446970611106       -0.74137763832302
H           -4.16647033262791       -1.37913839208455       -1.74286603769725
H           -4.42305166972197       -3.60568768956710       -0.69325880807508
H           -3.85587049390230       -3.91390412051344        1.68900637776509
H           -3.04848404565878       -1.99966115075063        3.01731196984690
H           -2.81158619019965        0.22290729739089        1.96341072255520
H            1.09287566575159        0.15322699874507        0.94219875536937
H            3.34940550252291       -0.18558743308655        1.75443170153547
