15
 energy: -22.890314054996 gnorm: 0.000690747315 xtb: 6.7.1 (edcfbbe)
O            0.65091152349265       -1.85170908320701        1.19217304413367
C            0.88462658149190       -0.79942299716153        0.64754629767423
O           -0.06059022098705       -0.03406216097822        0.09059789676158
C           -1.39813349213158       -0.52489225189662        0.17584562470974
C           -2.31969635093600        0.47798667004800       -0.49209344966482
C            2.24158326967501       -0.22229393969963        0.52401994003481
C            2.50350718994362        0.93481035789994       -0.06472452910509
H           -1.65640365565024       -0.66381411089412        1.23188456053231
H           -1.44784304583896       -1.50332302102216       -0.31547985304372
H           -3.34584309685835        0.12771177408403       -0.43201104856286
H           -2.24364103818771        1.44275713733371        0.00262490795143
H           -2.04616679888788        0.60030376365345       -1.53671319824153
H            3.01432292925681       -0.83553066162506        0.96525501153207
H            3.50618419549058        1.32228531172296       -0.13278546223521
H            1.71718301012718        1.52919421174228       -0.49877974247662
