25
 energy: -37.782437519528 gnorm: 0.000840892740 xtb: 6.7.1 (edcfbbe)
C            5.02879826920428        0.75808622968007       -0.49910428384650
C            4.08433605981154       -0.23720360464259        0.14744318686635
O            2.74462857148060        0.20516444710209       -0.06312921557652
C            1.77761915633915       -0.56301494056570        0.46379103719809
O            2.00033451089913       -1.57047083595684        1.09388391983119
C            0.44845499490003       -0.01846113531165        0.16057606386094
C           -0.65569879766585       -0.65079794323400        0.57669498777891
C           -2.03296960124208       -0.26288701598498        0.34755144152131
C           -2.39072674025036        0.86166635680593       -0.40107774982583
C           -3.71934823081530        1.18048980028277       -0.60020316220529
C           -4.71899108153859        0.38786862953106       -0.05769580450487
C           -4.38068900655466       -0.72883765422896        0.68933293166752
C           -3.05264114884452       -1.05089894587647        0.88926723341302
H            4.91016636484886        1.73811841267657       -0.04570341267730
H            6.05406093752908        0.42671911868480       -0.36670097764481
H            4.81590920358938        0.83956022542840       -1.56125984883877
H            4.19750496128678       -1.23626625982324       -0.28928792503073
H            4.26485349837885       -0.31870565864614        1.22557639469374
H            0.44176575953816        0.89536065912444       -0.41144184549285
H           -0.50974732186760       -1.56053498591599        1.14789859029410
H           -1.62382116191968        1.48653820721177       -0.83133502271619
H           -3.98035581642999        2.05165082301090       -1.18322083837681
H           -5.75686307142327        0.63950924428729       -0.21763746717282
H           -5.15533878846676       -1.34969348921997        1.11482650720377
H           -2.79124052078724       -1.92295968441952        1.47131625958036
