24
 energy: -32.385710679566 gnorm: 0.000681967254 xtb: 6.7.1 (edcfbbe)
C           -1.46871203410542        1.86768523596096        0.17296735997139
C           -2.14341297145545        0.56026167551542       -0.22301013749843
C           -1.44220570743078       -0.68426203950440        0.33290030749425
C           -2.29794312517415       -1.92537511865835        0.08105408638194
C           -0.06110377487588       -0.89732842203074       -0.28668644055913
O            0.88735755841170       -0.01458789444762        0.30826259729063
C            2.16738053531868       -0.20062263987812       -0.03250291916389
O            2.54083130672296       -1.05824590782363       -0.79482641444697
C            3.04047865087954        0.78294958969800        0.64610018523931
C            4.34968713132778        0.79044060961622        0.44530059035159
H           -2.03452034626585        2.71356354064949       -0.21134218468775
H           -0.45883854645804        1.91971335397743       -0.22194034437342
H           -1.41423546256625        1.95287180098717        1.25613837842014
H           -2.18807669830268        0.48666325913637       -1.31226214324520
H           -3.17089769555416        0.56836441327173        0.14822155950212
H           -1.30418552028771       -0.55707837229504        1.41159774812269
H           -2.40740765039465       -2.09833665978402       -0.98744115819126
H           -3.28799051676631       -1.79579045418439        0.51117467537553
H           -1.84364723018815       -2.80732484266055        0.52664735460141
H            0.28096839651317       -1.92640553528037       -0.12485063484734
H           -0.08209041846615       -0.72068796687591       -1.36856664821095
H            2.53682233562115        1.47845732373272        1.29988393537069
H            5.00438436712995        1.49600628316215        0.92689693038523
H            4.79735741636705        0.06906876771536       -0.21905368328221
