71
 energy: -104.840930264315 gnorm: 0.000466831108 xtb: 6.7.1 (edcfbbe)
C           10.66587680855156       -3.07559849034814       -1.33174927983243
C            9.80292301279887       -3.09590016539218       -0.11062619809670
C           10.07740276347839       -3.79608738119008        0.98416715690055
C            8.56881910488370       -2.26861347660948       -0.21704129281266
O            8.18431493000297       -1.76601641443747       -1.24439037239079
O            7.92657849797832       -2.14526577917797        0.95415746123520
C            6.72989940489365       -1.37271037762216        0.95572198028028
C            7.02458818106898        0.12601961058709        0.90946779071873
C            5.76884002931659        0.94726458789720        1.17872349288619
O            4.81119279668100        0.62950534731810        0.19469759990162
C            3.64421313454502        1.33551918712062        0.16439721645638
C            3.28951564864043        2.33663011708085        1.05689844216609
C            2.08160347680582        3.00338813481289        0.91226468294990
C            1.19799421175749        2.68942148065639       -0.10608294046532
C            1.55712433309388        1.66838025980878       -0.98520693742168
C            2.75485487531115        1.00254702346108       -0.85833298109401
C           -0.10741149029361        3.42998461521029       -0.34601384566052
C           -0.51247622971200        4.33194203761661        0.82902353712101
C            0.10319730449180        4.31743153459414       -1.58143955342229
C           -1.22331581502269        2.41387116107873       -0.52568932570512
C           -2.16390990048124        2.48029350660466       -1.53954209713808
C           -3.20278785059982        1.56540557277367       -1.62720953608301
C           -3.32547102921247        0.55790811260496       -0.68142360206362
O           -4.31573559857488       -0.38074954826160       -0.65351154148844
C           -5.34498871398901       -0.30867314874977       -1.61678672487862
C           -6.39446927282402       -1.35676248249084       -1.26730960843797
C           -7.05423718537221       -1.03680300611037        0.07318122958095
O           -8.02443013175718       -2.01419018358344        0.42954520251023
C           -9.22786024184403       -1.90758819329281       -0.15093072605769
O           -9.51267617413579       -1.03779033091500       -0.93911409468180
C          -10.16111716807920       -2.97442584236165        0.30191522673059
C           -9.64425283745983       -3.96871038632683        1.29015980824653
C          -11.39414463579195       -2.98188662140712       -0.19451772227438
C           -2.37511923390313        0.47401457335267        0.33701156649395
C           -1.34660462131856        1.38587512292293        0.40796605219783
H           10.06646025457722       -3.31470856471551       -2.20786577129612
H           11.48454362284749       -3.78349555389876       -1.24248087820018
H           11.07046881025602       -2.07551615793676       -1.48208505783196
H           10.96535319274581       -4.40220400558752        1.05411541103023
H            9.42434391863106       -3.78513459549416        1.83861668579575
H            6.11024514362342       -1.64900872284331        0.09770179658077
H            6.22173821816925       -1.64091414285881        1.88470093905982
H            7.41456518265755        0.37603260683804       -0.07781471615388
H            7.77732761004683        0.37109528258090        1.66126054077651
H            5.37339545279785        0.71676984636450        2.17947173784741
H            6.01956548101832        2.01637061921427        1.13751482759802
H            3.94080810453179        2.61548671448878        1.87072877561644
H            1.84742461236509        3.78066643424176        1.62214962839084
H            0.87993969722262        1.39043467655616       -1.77956646387063
H            3.03297692734788        0.21806486544405       -1.54407775006349
H            0.19134894527438        5.15199109940589        0.95084706418688
H           -1.49608894115587        4.75494603659273        0.63342381033789
H           -0.56666994190153        3.76510914931708        1.75497477437172
H            0.97726354870143        4.94690283043409       -1.42540777788052
H            0.27485852525175        3.71499410092157       -2.46965518851870
H           -0.75515451399529        4.96419763465606       -1.74740272678142
H           -2.10807166847064        3.25242452924900       -2.29028004591465
H           -3.90677773416593        1.65588592859893       -2.43972091965842
H           -4.94089602815469       -0.50660693664572       -2.61936225076651
H           -5.80354082266642        0.68966741931481       -1.61152855753379
H           -5.92212046864514       -2.33849615598229       -1.20991603277433
H           -7.15578740284385       -1.37222911107760       -2.04830820565741
H           -7.53826839763887       -0.05491955028765        0.02261435739981
H           -6.31339891217508       -1.04932370186234        0.87389828622680
H           -9.31329649701769       -3.46101765016457        2.19415379725891
H          -10.41669767769021       -4.68906379752825        1.54548624941721
H           -8.78481130431220       -4.49435098922093        0.87824637571264
H          -11.70042124398118       -2.23156702216532       -0.90344727548511
H          -12.12127031721455       -3.72260777683097        0.09041605869868
H           -2.46921363243931       -0.31768218527418        1.06360954247159
H           -0.61806712748314        1.30018068864682        1.20100189343310
