37
 energy: -53.653853172056 gnorm: 0.000571022831 xtb: 6.7.1 (edcfbbe)
C           -0.92966651837075       -1.31399349479343       -2.20845115043513
O           -0.05206042590986       -0.54365689564406       -1.41638454655316
C           -0.39824387911088       -0.44084593180279       -0.05477697649317
C            0.70089775327607        0.39467888057481        0.59978292166910
C            2.05984819110076        0.24344844796340        0.05774196520964
C            2.54997525845304       -1.00224713399015       -0.32640133553829
C            3.83868196574843       -1.12826666503069       -0.81040758076469
C            4.65493798498820       -0.01593960936877       -0.92586720626495
C            4.17312294388769        1.22836477905247       -0.55541791172875
C            2.88686129684073        1.35776255174232       -0.06682209113133
C            0.44607992744325        1.18317538820281        1.63886829692338
O           -0.43020683817216       -1.76937063726586        0.47122347953576
C           -0.22529434398939       -1.91715661162530        1.85396658628015
C           -1.75784553487886        0.24054309087397        0.07369638260089
C           -1.88830935924665        1.54747726487256       -0.38408448544643
C           -3.11283145094027        2.18587454730783       -0.33082446509737
C           -4.22038603233435        1.52492823777737        0.17615187204464
C           -4.09948068367014        0.21799686334431        0.61259158700411
C           -2.87453883906923       -0.42618666752134        0.55439238034933
H           -0.48588520673155       -1.32816433456954       -3.20177700764053
H           -1.01321892093829       -2.33314062538649       -1.82421949034066
H           -1.92686161796350       -0.86253050894092       -2.25594069617042
H            1.91867857316948       -1.87292932715823       -0.24460466813213
H            4.20848979399833       -2.10083600495406       -1.10182018395979
H            5.66036244393714       -0.11670135250727       -1.30804640946807
H            4.80163384777862        2.10208136947753       -0.65143621417468
H            2.50899118451951        2.33288313685445        0.20383081882988
H           -0.54381563681718        1.30505944125548        2.04471492630308
H            1.23469074321799        1.73089790665818        2.12615502565018
H           -0.44267090819755       -2.96325126684811        2.06735097680664
H           -0.89559059436806       -1.27906571686220        2.43840186143556
H            0.80918474460976       -1.69573356131724        2.13858501298975
H           -1.02259908782530        2.05137725180482       -0.78742830649872
H           -3.20497847899998        3.20094756027106       -0.68831656339505
H           -5.17637931033931        2.02563846135802        0.22117676244368
H           -4.96212201508668       -0.30838125071399        0.99396317766105
H           -2.78945097001072       -1.45473958307914        0.87043225548632
