47
 energy: -73.488423333983 gnorm: 0.000608294682 xtb: 6.7.1 (edcfbbe)
O            8.06322440664242       -0.40130872897679       -2.66568028805314
C            7.71222645081223        0.39021252274754       -1.56155761509111
C            6.21323103602346        0.32394189412863       -1.27060875061052
S            5.85343500132838        1.37178561447914        0.18000155392181
C            4.15366387953950        1.06108292811495        0.52190650313319
C            3.30500288738759        0.32853846898981       -0.30165433714098
C            1.98688979047561        0.13973369481743        0.05766129258933
C            1.47253199475282        0.67042113555813        1.24428259373953
C            0.10432805526942        0.48496326865876        1.66249936401824
C           -0.88546230740506       -0.11496770694313        0.97919534394789
C           -2.21850471170708       -0.23810839752076        1.56466170780725
C           -3.23184024858571       -0.96567908681074        0.64586758843745
O           -4.31030379913394       -1.37760841565731        1.44231445520325
C           -5.41671738513436       -1.88135941443926        0.72219278127213
O           -2.65098387798177       -2.05359777962148       -0.04200425278127
C           -2.17188252269089       -3.07973181178604        0.80442799883649
C           -3.61614649205555        0.11096660625245       -0.35718708472792
C           -3.22453978764462        0.04946569377372       -1.68612201028662
C           -3.58259321235292        1.06513551303659       -2.55600084986071
C           -4.32523977093977        2.14238011178469       -2.10404392721761
C           -4.71361977339881        2.20504862342361       -0.77545122614701
C           -4.35782599287176        1.19514862979698        0.09864940035410
O           -2.54862866146920        0.23549426193855        2.62759891662659
C            2.34027924677070        1.41086232113457        2.05922635022719
C            3.65382967656605        1.60699952549075        1.70553665843341
H            7.90998896475534       -1.32956510860740       -2.45500585701575
H            8.27394203599528        0.09575339943017       -0.66419558569211
H            7.99422901497730        1.41209694871419       -1.82493434322202
H            5.91531358575836       -0.69942635500735       -1.03207561190866
H            5.64918221191082        0.69146844394765       -2.12826113960429
H            3.66047697639975       -0.09518159369281       -1.22738014560198
H            1.34804669457501       -0.43510591142493       -0.59449719954352
H           -0.14941708298132        0.87890253751893        2.64023591283047
H           -0.75219581109567       -0.53224104306570       -0.00640912846073
H           -6.08568507674825       -2.30661246434325        1.46736230590879
H           -5.10720206000281       -2.65650755742955        0.01458420029067
H           -5.93111766523857       -1.08508389128861        0.17433723887262
H           -1.28343299655160       -2.75410736497477        1.35701614852897
H           -2.93765161236109       -3.39056094780151        1.51934872352157
H           -1.91596070435454       -3.91139819441044        0.15061965174875
H           -2.65655651921736       -0.79914179179220       -2.03280416565089
H           -3.28052106252403        1.01283899730233       -3.59180433897318
H           -4.60119695272789        2.93360707463725       -2.78554864083039
H           -5.29172361317146        3.04452917375175       -0.41875272179988
H           -4.64610064816389        1.23244366608465        1.13883877727850
H            1.96672690059085        1.83422607417617        2.97984753886674
H            4.31650253796227        2.17924843588884        2.33664621386057
