18
 energy: -38.735116368975 gnorm: 0.000553327129 xtb: 6.7.1 (edcfbbe)
C           -2.93022766095966        0.55464712184601       -0.24686790635413
C           -1.65415392881091       -0.21957303378432       -0.15411182528963
C           -1.57955184542854       -1.54731939347369       -0.16673213009958
C           -0.44062438800058        0.61984985076374       -0.03100097149000
O           -0.42916146882655        1.81915530731169        0.06652690115720
O            0.70629790107817       -0.10810730588840       -0.03747693333059
C            1.89673348910188        0.63723823140503        0.08863236005956
C            3.04578219211195       -0.35547533501510        0.20228048317392
F            3.16143141320779       -1.12670374335293       -0.88198218129741
F            4.21418179759248        0.28540047039759        0.35102017144049
F            2.91235449484975       -1.17031554802481        1.25169750474656
H           -3.78563093294915       -0.11278815376513       -0.28654005901682
H           -2.91927858913645        1.18114408925370       -1.13737825700500
H           -3.02376096810348        1.21753494008275        0.61142820167823
H           -2.46574749741549       -2.15383354125287       -0.24990682946003
H           -0.63875967024667       -2.06319193047200       -0.09384441543049
H            1.87219405656461        1.26814654681460        0.98590272824008
H            2.05792260537093        1.27419242715428       -0.79004084172246
