18
 energy: -38.735110064656 gnorm: 0.000596901932 xtb: 6.7.1 (edcfbbe)
C           -2.95213811406591       -0.47426630371926        0.47651353898941
C           -1.64478056054993        0.22438397099247        0.27913920481619
C           -1.51854949458133        1.45815046511252       -0.20120924174953
C           -0.46169870755497       -0.57922405078521        0.66236188418590
O           -0.48774407336269       -1.72075140416446        1.04228918686003
O            0.70400390590550        0.10735163254377        0.54161875784991
C            1.86650068422810       -0.61106706358061        0.89062712815791
C            3.06085505174602        0.29206897347262        0.61519630140011
F            3.02601902160645        1.41645425381755        1.33427718536982
F            4.20759672463808       -0.33180360426258        0.92224573589555
F            3.14396454425819        0.64876907204494       -0.66856952871584
H           -2.93987973421796       -1.43402908723053       -0.03663035356037
H           -3.77384366365002        0.12909010748050        0.10314295106601
H           -3.10666513897509       -0.67764314656487        1.53512449338598
H           -0.55685490734806        1.92272031688008       -0.32677522158093
H           -2.38271095599177        2.03718444451143       -0.48074449604708
H            1.95860336234722       -1.52580374658040        0.29178614110665
H            1.85732305556818       -0.88158482996797        1.95384933257032
