47
 energy: -74.314478102541 gnorm: 0.000352108734 xtb: 6.7.1 (edcfbbe)
O           -0.49248280648969       -1.50421359171041        1.58228979011016
C           -0.80598957356965       -1.14671187514324        0.46616009085856
C            0.12397459526836       -1.46651113124597       -0.73101184094066
O           -0.61198724260060       -1.33125317580033       -1.93129227960596
C            0.15341007685889       -1.51972820926739       -3.10579583582602
O            0.68608852301754       -2.74828958819349       -0.62748305145357
C           -0.25032350709173       -3.79975910286357       -0.48977519717864
C            1.23663211248957       -0.43719873753530       -0.61562223183632
C            1.00031870639752        0.88087715025548       -0.99369626624903
C            1.99756754623099        1.82463543393860       -0.88421094248786
C            3.25463184650078        1.47799949856651       -0.38383505367286
O            4.16670202930887        2.49098930354295       -0.35195374294285
C            5.46029685473576        2.26126684567617        0.15459451910642
C            5.50014711222973        2.26911636125474        1.69242742165098
O            6.80768065335335        2.12316949715641        2.18377316428007
C            3.48106151919949        0.16409573581190        0.01091551588212
C            2.47620143620920       -0.78057117360452       -0.10350220653811
C           -2.02060410425015       -0.39959919263440        0.15730417868561
C           -2.90860744003417       -0.12213547627206        1.12653421943906
C           -4.18460763093378        0.54378314476283        0.97983549520507
C           -4.96974166153025        0.75754253881052        2.11771755669635
C           -6.20203323573657        1.37364568204171        2.02369280406948
C           -6.67798771729029        1.78917646684387        0.79036807380535
C           -5.91139799009532        1.58586798353816       -0.34702827384738
C           -4.67876157128063        0.97098745998058       -0.25684026111577
H           -0.56012521354964       -1.52322281336236       -3.92739780939616
H            0.69047216698392       -2.47121773642496       -3.07542454986538
H            0.87457638029756       -0.70751623419832       -3.24100435584724
H            0.31142989213653       -4.71820601680268       -0.64949822674462
H           -0.69014268851147       -3.80819563685476        0.51135130210785
H           -1.04715580901651       -3.71785457229759       -1.23529826627162
H            0.03394613164673        1.16150090007295       -1.38506845956041
H            1.83075054962511        2.84747429278661       -1.18227407549697
H            6.06747705023453        3.08990474720367       -0.22105602756353
H            5.87887655848412        1.32290869021758       -0.23525433910372
H            4.83614468020642        1.48896190540957        2.08975366778848
H            5.14780574805619        3.23670670714448        2.05563590362938
H            7.15453501138558        1.26379521629413        1.91888777430240
H            4.43401015551341       -0.14770313596459        0.40816926512918
H            2.65291063428260       -1.79859543365448        0.20178470926510
H           -2.17638670659589       -0.14140399554272       -0.87594120153730
H           -2.65213612351729       -0.43798981466352        2.13176957221947
H           -4.60162462514428        0.43295335989294        3.08031122999063
H           -6.79613564042834        1.52946998053852        2.91211322277867
H           -7.64288370540467        2.26804210218701        0.71458905421152
H           -6.28142762056872        1.90813895873536       -1.30935388006985
H           -4.09510435702200        0.81438268143595       -1.15036315601293
