47
 energy: -74.301130183745 gnorm: 0.000192959065 xtb: 6.7.1 (edcfbbe)
O           -1.04184696797538       -0.68395689045658        2.57201579921700
C           -1.19627039271595       -0.90982563415645        1.38884810794229
C           -0.30450084331863       -1.92977958604988        0.63834850901600
O           -1.07466238636602       -2.45747080823307       -0.42086190434207
C           -0.79188066125244       -3.78624189145248       -0.81833251512399
O            0.06612475444724       -3.02618073851372        1.44736383460977
C            1.03703935815720       -2.86053318170763        2.45472185959484
C            0.87778598308558       -1.11007754970734        0.10911034402788
C            1.58677707061185       -0.25551453535696        0.94350667392830
C            2.67253125826127        0.46527899712775        0.47636043891871
C            3.06351819805392        0.35494799268221       -0.85358306041817
O            4.11187746651418        1.00763140752715       -1.41925195957722
C            4.95960605858868        1.77773817623681       -0.59612805026639
C            6.15182932393955        2.22416074038319       -1.43812597971656
O            7.09942822348845        1.18299485202887       -1.45746018721335
C            2.32411371791899       -0.46781196010326       -1.70474054573287
C            1.24844348593356       -1.18525086438901       -1.23015358401994
C           -2.17644384377194       -0.22749654615397        0.55035048830824
C           -3.11474453362781        0.55478817636145        1.10853164235933
C           -4.18851729820804        1.25326959036610        0.43535811020872
C           -5.05360846247069        2.05193798547369        1.19045539304692
C           -6.09729055032230        2.72988743850575        0.59199637648266
C           -6.30123218705324        2.62308167612506       -0.77439258395571
C           -5.45309204831061        1.83442691361433       -1.53681294627697
C           -4.40805301127110        1.15611595193997       -0.94219685098713
H            0.27848868103497       -3.95136643012810       -0.96152474349466
H           -1.16601434898453       -4.50340410535568       -0.08458444003297
H           -1.31934218202016       -3.91607765327282       -1.76274920864233
H            2.00919320859935       -2.57769317726173        2.03718372173543
H            0.72421906298692       -2.12960765890599        3.20209454634079
H            1.11590428116482       -3.84209051198506        2.92044408204891
H            1.28965990587129       -0.13375929669169        1.97377721496787
H            3.19796777055960        1.11373634605649        1.15935018233752
H            5.33387804869984        1.17969268741412        0.24326190256393
H            4.42391275328302        2.65694824737469       -0.21288894271821
H            5.79524504153503        2.45713736960007       -2.44883185439642
H            6.58787586418184        3.13079314811539       -0.99327128646158
H            7.77314427456124        1.37468112704679       -2.11737915332656
H            2.61875567565645       -0.53136346327492       -2.74023930182455
H            0.68493639618132       -1.80493217426300       -1.90895326394099
H           -2.12457510729541       -0.43057337562522       -0.50547618875724
H           -3.07607204311693        0.67520957559348        2.18568844245401
H           -4.89782208419063        2.13589318636130        2.25642323554616
H           -6.75652594629447        3.34173058776005        1.19018129917984
H           -7.11891706296491        3.14983539800957       -1.24357639795869
H           -5.61215337048344        1.74812313291446       -2.60179014506599
H           -3.75869153128102        0.54096532849481       -1.54496011064192
