47
 energy: -74.313089926795 gnorm: 0.000346626862 xtb: 6.7.1 (edcfbbe)
O            1.81673364301757       -2.39791393849627        2.41380172745951
C            1.65012526052538       -1.87540564017787        1.33483419944837
C            0.51310586764470       -2.35872735627468        0.39475845963415
O            0.11218798402935       -3.61246187354155        0.89121882213862
C           -1.05547354161245       -4.13937371636322        0.29867752605821
O            0.92214672227956       -2.45629769565313       -0.95445350227379
C            2.00664909899308       -3.33756325493598       -1.16670771750997
C           -0.60027027254213       -1.32837048056127        0.50124307651793
C           -1.09564167007827       -1.00972268382790        1.76244403823460
C           -2.11349795912997       -0.09207830384388        1.89788887243769
C           -2.66053024783285        0.52927682508404        0.77360807047566
O           -3.65553386558004        1.42636113080933        1.01690883163699
C           -4.26634268800253        2.08729184221543       -0.07506854615742
C           -5.33173990959849        3.01429582888020        0.51404725890287
O           -6.35914150582534        2.29665628903625        1.14072065778367
C           -2.17625441938686        0.20099294682727       -0.48697855494526
C           -1.15542031097919       -0.72585107896468       -0.61554107128078
C            2.46879700904309       -0.74286841940142        0.90416725364765
C            2.24100940284047        0.04810530331939       -0.15506517689015
C            3.03584939505725        1.19081974300200       -0.56124847105668
C            2.59976218329588        1.94917099731319       -1.65283770248946
C            3.31366962052985        3.04924878162049       -2.08504105972965
C            4.48257852356334        3.41578679992935       -1.43739674485274
C            4.93015645419648        2.67356795203899       -0.35542479141418
C            4.21722888962966        1.57439140537180        0.08038480200411
H           -0.98203658174260       -4.13303595384840       -0.79329785233013
H           -1.13212602236143       -5.16355041213140        0.65769450718008
H           -1.94402112418337       -3.57463197175182        0.60022225426017
H            2.08676192695197       -3.45880240761867       -2.24522131887041
H            2.93787215627037       -2.91762998790937       -0.77160684989711
H            1.82401430892790       -4.30605821024089       -0.69456807418806
H           -0.68125891222245       -1.49564048708524        2.63263876765558
H           -2.50403650345845        0.16373306926209        2.87001074376848
H           -4.74145305589693        1.35851558226688       -0.74487017319222
H           -3.52919576262705        2.67525880627699       -0.63672249383401
H           -4.84837771097249        3.70240288936409        1.22210496994206
H           -5.79921236967663        3.59312587817413       -0.28512155193771
H           -5.95062583611705        1.70471438150078        1.78447807995847
H           -2.58727855407626        0.65218061214746       -1.37625964525697
H           -0.79271624564245       -0.99118549372588       -1.59638410269765
H            3.30058608796380       -0.55955325920147        1.57205028814758
H            1.38665166826728       -0.15590915684009       -0.78405267882015
H            1.68856869634251        1.66481587847822       -2.15959822728645
H            2.96113546786458        3.62362548787968       -2.92915199847345
H            5.04306137482389        4.27510016941212       -1.77409108571982
H            5.84170829582227        2.95591322281213        0.15047428873544
H            4.58182403166215        1.00728095937623        0.92232889506371
