46
 energy: -68.497409726960 gnorm: 0.000314905978 xtb: 6.7.1 (edcfbbe)
C            1.81724154709901       -2.52378082245789       -0.26696588429802
C            2.46309266957146       -1.17285432307678       -0.20283863472433
C            1.74083313195456       -0.04209799674459       -0.58106797510882
C            0.33841050309859       -0.17387443857640       -1.01484771702302
P           -0.81302480289326        0.16562396278017        0.43535557401881
C           -2.01291178645639        1.40263900981186       -0.15663163072714
C           -2.34048492270970        2.41092194885563        0.73988791974005
C           -3.25212814647001        3.38597447674002        0.37858897572773
C           -3.83260555566101        3.35311892290756       -0.87893096829676
C           -3.49610363193067        2.35162683555421       -1.77622794517114
C           -2.58613757409627        1.37243393385015       -1.42064730186920
C           -1.75641575515784       -1.38977580769580        0.56274494796842
C           -1.91499705619019       -1.90365465046482        1.84273621058520
C           -2.61976209794893       -3.07838631708473        2.03270317041703
C           -3.16165165758507       -3.74015659271363        0.94286223739556
C           -2.99385150024658       -3.23114741445366       -0.33542324421510
C           -2.29259219222951       -2.05534519924091       -0.53173060352865
O           -0.12387666997287        0.53597046436263        1.67644945994578
O           -0.06490234299472       -0.48936936932710       -2.10284634649191
C            2.29336263764005        1.23512442821530       -0.47838951221872
C            1.46992338648730        2.42329816503747       -0.86816852654360
C            3.59611126857666        1.36093951135790       -0.02803893464676
C            4.34412932928468        0.24889081183337        0.33789488583906
C            5.74480808903880        0.41763334705884        0.84225049582355
C            3.76277827509289       -1.00779454073547        0.24990622432470
H            2.50660816725548       -3.29957615244398        0.05617957519334
H            0.93768052257298       -2.54726994288496        0.37976812228119
H            1.48949622458512       -2.74572845811812       -1.28207967475321
H           -1.86600378247202        2.41693857951123        1.71103596707188
H           -3.50937959732238        4.17022264286699        1.07528880616895
H           -4.54601098785043        4.11265265387405       -1.16330361039229
H           -3.94465809970316        2.33495969659601       -2.75873277140836
H           -2.30993280887823        0.60363668060458       -2.12528070821271
H           -1.47255037417830       -1.37238671702193        2.67328248579521
H           -2.74511358633271       -3.47866026084796        3.02799991830640
H           -3.71173344955618       -4.65829084602986        1.08831818669979
H           -3.40993650832121       -3.75464264789045       -1.18375955397213
H           -2.14590491407686       -1.67035868540980       -1.52880613688180
H            0.55865720863472        2.45296699501710       -0.26655933613998
H            2.01987851742614        3.34779806860198       -0.71069903149134
H            1.17693820956584        2.36378373444712       -1.91657237541592
H            4.03585488666575        2.34516979108764        0.04851489549615
H            6.26917614198332       -0.53418871092305        0.86491120134084
H            5.72943621433212        0.82507102279647        1.85306552694223
H            6.29873185477238        1.11086437075834        0.21211893494266
H            4.32951901560424       -1.87891916038845        0.54668470151838
