15
 energy: -22.893352046339 gnorm: 0.000645236195 xtb: 6.7.1 (edcfbbe)
O            0.98889510957332        1.62827282863380        0.29082875069252
C            0.45076471450416        0.55501728804513        0.16667565861279
O            1.12722765413705       -0.59006758826139       -0.01556486005443
C            2.54358863119399       -0.51001111416058       -0.04955718989417
C           -1.02372952497383        0.35353423000701        0.19383024199639
C           -1.78611936801215        1.43095006008353        0.36194347537924
C           -1.58434617771051       -1.02816409713160        0.03498371678267
H            2.85581217948254        0.50114696052901       -0.31795639617655
H            2.94531492378343       -0.76430530316708        0.93342808478763
H            2.88897596868058       -1.22902213401463       -0.79038128412362
H           -2.86039943006807        1.36869135938417        0.39346795269826
H           -1.33983029876388        2.40417811465352        0.47331025538278
H           -2.18901303756791       -1.28781311914324        0.90217830034999
H           -2.22508189897389       -1.07190242393842       -0.84400131920539
H           -0.79205844528482       -1.76050606151926       -0.07246938722813
