51
 energy: -94.671533442744 gnorm: 0.000595948074 xtb: 6.7.1 (edcfbbe)
C           -4.41607823957402        6.15034109081313        1.23782368881359
C           -3.22772402498816        6.34655817067867        0.68541434908444
C           -2.12792447844048        5.36113966754117        0.71828693030416
O           -1.08438244320823        5.49657814544269        0.13188483732132
O           -2.41344538865538        4.28801451509825        1.48086548529343
C           -1.41115627633376        3.29079838695917        1.57926802827193
C           -1.30388263173261        2.47922166234218        0.28060355821521
N           -0.63073087257011        1.20677650968990        0.50258279352502
C            0.74713493621219        1.23230848756127        0.60638506739961
O            1.38157859698109        2.25125159193909        0.55108900617631
N            1.34315956683201       -0.00452154876154        0.78376172543409
C            2.79744434029427       -0.04358905649223        0.83519050027327
C            3.38423769006105       -0.17914952581095       -0.56820136934747
O            4.79777533037324       -0.18683523699518       -0.44749325228700
C            5.47746812658512       -0.28594816110634       -1.60450909426569
O            4.93431745213620       -0.37057036456022       -2.67741844158367
C            6.94208861674631       -0.27986986265913       -1.41446246197767
C            7.53557246645321       -0.18160700063534       -0.23400337242243
C            0.66798581008876       -1.20714585510935        0.85487109415366
O            1.23315328678835       -2.26221689806917        0.97788963851555
N           -0.70975978162644       -1.10343235249233        0.80398459914401
C           -1.47826092456058       -2.33684509802711        0.89122159781625
C           -1.69950594973608       -2.94276265500831       -0.49285267985853
O           -2.45086817782553       -4.13510471141635       -0.32633854354001
C           -2.82644698070040       -4.75675805863381       -1.46000496278768
O           -2.55599819654736       -4.34599487045926       -2.55929694293429
C           -3.59654894682326       -5.97917702336270       -1.15449501324417
C           -4.06517851906168       -6.75282318670499       -2.12282714837030
C           -1.41216110124798        0.07110293193137        0.60443422387781
O           -2.61283892020664        0.09775544938084        0.53031991008750
H           -4.64515258030932        5.23812852948496        1.76218773280572
H           -5.19428653042135        6.89277927874978        1.18082644663531
H           -2.98265459549648        7.25122426622363        0.14780837432030
H           -1.72796841788264        2.64717902334028        2.40322512455565
H           -0.44440449502649        3.75372996366358        1.80373598517565
H           -0.73866842900813        3.04940919179470       -0.45937449370642
H           -2.30656844557861        2.25651390637772       -0.09008369824525
H            3.09312850697797       -0.89995185379409        1.44306239373428
H            3.14590655961914        0.88561937609043        1.28888290987792
H            3.05109065508302       -1.11113893088435       -1.04053709698740
H            3.07550291735160        0.66283314794636       -1.19934884118282
H            7.49881159708510       -0.36210991479542       -2.33680743374277
H            6.96249179758402       -0.09971918860830        0.67393762424170
H            8.60841004637350       -0.17970334079690       -0.13982275165398
H           -2.44205987105590       -2.10506517809506        1.34712786653326
H           -0.92200096926187       -3.03954928632358        1.51349754903465
H           -0.74094644090265       -3.17851540319153       -0.97033930206723
H           -2.25166120130651       -2.24935931904025       -1.13831281588822
H           -3.74211502352426       -6.18672821360518       -0.10558245512032
H           -4.62804687525956       -7.64832272085250       -1.92367565230804
H           -3.88783457075658       -6.49474747676624       -3.15438321710373
