45
 energy: -68.718021610438 gnorm: 0.000199910999 xtb: 6.7.1 (edcfbbe)
C            1.41405042729746        2.80648422863359       -2.41592972907306
C            0.84419728192118        2.06576193643553       -1.21014589793129
C           -0.55941805527527        1.52041660356114       -1.52468596157098
O           -1.24053736457859        1.23874174505196       -0.32070799871226
C           -2.42322917631895        0.50460720923842       -0.50948857062134
C           -2.94790304075262        0.08621635865633        0.86888266378177
C           -3.45795327675891        1.27528255746832        1.66463417108255
O           -4.02569872905790       -0.83928875736854        0.71353306995049
C           -3.70377514511759       -2.11531028385733        0.46365325581400
O           -2.56780748333903       -2.51014021955431        0.35205875320582
C           -4.88914460090652       -2.99149147497759        0.34165023551063
C           -6.13828724253504       -2.56752313592908        0.46344270617380
O            1.74010618025590        1.01758587829256       -0.90748725299189
C            1.64521090432849        0.51538206320169        0.41075739573032
C            2.25188975553419       -0.89142365179269        0.46702108791112
C            1.54613569517610       -1.85271226911378       -0.47613578096317
O            3.63177560585111       -0.85460334718498        0.09185673187399
C            4.50432194244007       -0.40324108234366        0.99446424932131
O            4.21126034767424       -0.05553101427106        2.11394715772368
C            5.87682275146835       -0.40459774504943        0.43762954778003
C            6.91331909183790       -0.01049903796551        1.16172426477483
H            2.42429581125673        3.13571338016641       -2.19152810757354
H            0.80136345756902        3.66955184057292       -2.65889162753656
H            1.45241616441783        2.13735827904208       -3.27103672351494
H            0.76112655336036        2.74787468218359       -0.35079310010487
H           -0.45356750644193        0.60470998374330       -2.12352797089894
H           -1.12857054936415        2.25724563661781       -2.11160532768961
H           -2.22069329916809       -0.39699099207155       -1.10703069229577
H           -3.17976776785377        1.10758028691139       -1.03606820106427
H           -2.12795340150896       -0.41439254431334        1.40022399615323
H           -4.31339107624762        1.71749467736179        1.16028629340342
H           -3.75926081430507        0.96291639485776        2.66063768867376
H           -2.66384920467528        2.01144724306122        1.73986497966614
H           -4.64628580063649       -4.02510465900386        0.14114332048692
H           -6.35856521291878       -1.53281892820869        0.66447933326189
H           -6.97542043198580       -3.23823552423774        0.36702249009027
H            0.60061365180870        0.45494791512494        0.73077456666483
H            2.18846888621985        1.17715033402215        1.10145201204396
H            2.19023821362373       -1.23798318326527        1.50803920068014
H            2.02940239024960       -2.82550832363512       -0.44722376077007
H            0.50566784071960       -1.96302593733798       -0.18332807287685
H            1.60085407693969       -1.45961781951960       -1.48718470615203
H            5.96084366378833       -0.74048568478445       -0.58450800346051
H            6.76853687749002        0.31654703382557        2.17881589618051
H            7.91816060851124       -0.00049165225283        0.77543841792338
