{
  "lookup_id": "CMWTZPSULFXXJA-VIFPVBQESA-N",
  "inchi_key": "CMWTZPSULFXXJA-VIFPVBQESA-N",
  "inchi": "InChI=1S/C14H14O3/c1-9(14(15)16)10-3-4-12-8-13(17-2)6-5-11(12)7-10/h3-9H,1-2H3,(H,15,16)/t9-/m0/s1",
  "smiles": "COc1ccc2cc([C@H](C)C(=O)O)ccc2c1",
  "melting_temp": 425.15,
  "melting_temp_source": "152\u2013154 \u00b0C (ChemicalBook)",
  "Hfus": "N/A",
  "Gfus_model": "MyrdalYalkowsky",
  "notes": "Fill in melting point, Hfus, and Gfus model if known."
}