{
  "lookup_id": "GWZMWHWAWHPNHN-RXMQYKEDSA-N",
  "inchi_key": "GWZMWHWAWHPNHN-RXMQYKEDSA-N",
  "inchi": "InChI=1S/C6H10O3/c1-3-6(8)9-4-5(2)7/h3,5,7H,1,4H2,2H3/t5-/m1/s1",
  "smiles": "C=CC(=O)OCC(C)O",
  "melting_temp": "350.15",
  "Hfus": "N/A",
  "Gfus_model": "MyrdalYalkowsky",
  "notes": "Fill in melting point, Hfus, and Gfus model if known."
}