{
  "lookup_id": "HEFNNWSXXWATRW-JTQLQIEISA-N",
  "inchi_key": "HEFNNWSXXWATRW-JTQLQIEISA-N",
  "inchi": "InChI=1S/C13H18O2/c1-9(2)8-11-4-6-12(7-5-11)10(3)13(14)15/h4-7,9-10H,8H2,1-3H3,(H,14,15)/t10-/m0/s1",
  "smiles": "CC(C)Cc1ccc(C(C)C(=O)O)cc1",
  "melting_temp": 351.15,
  "melting_temp_source": "78 \u00b0C (ChemicalBook)",
  "Hfus": "N/A",
  "Gfus_model": "MyrdalYalkowsky",
  "notes": "Fill in melting point, Hfus, and Gfus model if known."
}