{
  "lookup_id": "OFCNXPDARWKPPY-UHFFFAOYSA-N",
  "inchi_key": "OFCNXPDARWKPPY-UHFFFAOYSA-N",
  "inchi": "InChI=1S/C5H4N4O/c10-5-3-1-8-9-4(3)6-2-7-5/h1-2H,(H2,6,7,8,9,10)",
  "smiles": "O=c1[nH]cnc2[nH]ncc12",
  "melting_temp": 623.15,
  "melting_temp_source": "350 \u00b0C (Solubility of Things)",
  "Hfus": "N/A",
  "Gfus_model": "MyrdalYalkowsky",
  "notes": "Fill in melting point, Hfus, and Gfus model if known."
}