{
  "metadata_version": 3,
  "inchi_key": "OQCIXXVMXBXDSC-UHFFFAOYSA-N",
  "smiles": "C=C(c1ccccc1)C(OC)(OC)c1ccccc1",
  "mol_name": "Irgacure651",
  "mol_name_iupac": "N/A",
  "charge": 0,
  "multiplicity": 1,
  "rotatable_bonds": 5,
  "molecular_weight": 254.130679816,
  "heavy_atom_count": 19,
  "hbond_donors": 0,
  "hbond_acceptors": 2,
  "tpsa": 18.46,
  "logp": 3.845600000000003,
  "aromatic_rings": 2,
  "N_count": 0,
  "O_count": 2,
  "S_count": 0,
  "halogen_count": 0,
  "ring_count": 2,
  "heterocycle_count": 0,
  "double_bond_count": 1,
  "triple_bond_count": 0,
  "is_amide": false,
  "is_ester": false,
  "is_alcohol": false,
  "is_amine": false,
  "is_carboxylic_acid": false,
  "is_ketone": false,
  "is_aldehyde": false,
  "is_nitrile": false,
  "is_acrylate": false,
  "is_methacrylate": false,
  "is_acrylamide": false,
  "is_methacrylamide": false,
  "is_vinyl_ether": false,
  "is_vinyl_ester": false,
  "is_styrenic": false,
  "is_ether": true,
  "is_carbonate": false,
  "is_urethane": false,
  "is_urea": false,
  "is_sulfonamide": false,
  "is_sulfonate": false,
  "is_phosphate": false,
  "is_fluorinated": false,
  "is_chlorinated": false,
  "is_brominated": false,
  "amide_count": 0,
  "ester_count": 0,
  "alcohol_count": 0,
  "amine_count": 0,
  "carboxylic_acid_count": 0,
  "ketone_count": 0,
  "aldehyde_count": 0,
  "nitrile_count": 0,
  "acrylate_count": 0,
  "methacrylate_count": 0,
  "acrylamide_count": 0,
  "methacrylamide_count": 0,
  "vinyl_ether_count": 0,
  "vinyl_ester_count": 0,
  "styrenic_count": 0,
  "ether_count": 2,
  "carbonate_count": 0,
  "urethane_count": 0,
  "urea_count": 0,
  "sulfonamide_count": 0,
  "sulfonate_count": 0,
  "phosphate_count": 0,
  "fluorinated_count": 0,
  "chlorinated_count": 0,
  "brominated_count": 0,
  "Fsp3": 0.17647058823529413,
  "Bertz_complexity": 527.7032274575294,
  "molar_refractivity": 77.61400000000005,
  "provenance": {
    "source_file": "/home/lunet/cglh4/openCOSMO-RS_Pipeline-LH/pipeline_data/input_data/acr_t27.csv",
    "cleaning_timestamp": "2026-02-17T13:49:21.833778Z",
    "pipeline_version": "unknown",
    "generated_by_request": "R-17Feb26-1349-21475-test_abort",
    "generated_by_job": "J-17Feb26-1349-21476-cleaning"
  },
  "melting_temp": "341.65",
  "melting_temp_source": "https://doi.org/10.1021/acs.chemmater.4c00369",
  "Hfus": "N/A",
  "Gfus_mode": "MyrdalYalkowsky",
  "formula_calcd": "",
  "anionic": false,
  "experimental_solubility_mol_frac": 9.9167e-06
}