{
  "metadata_version": 3,
  "inchi_key": "PFPUZMSQZJFLBK-UHFFFAOYSA-N",
  "smiles": "C=C(C)C(=O)OCCN1CCNC1=O",
  "mol_name": "2-(2-oxoimidazolidin-1-yl)ethyl methacrylate",
  "mol_name_iupac": "N/A",
  "charge": 0,
  "multiplicity": 1,
  "rotatable_bonds": 4,
  "molecular_weight": 198.100442308,
  "heavy_atom_count": 14,
  "hbond_donors": 1,
  "hbond_acceptors": 3,
  "tpsa": 58.64,
  "logp": 0.13090000000000007,
  "aromatic_rings": 0,
  "N_count": 2,
  "O_count": 3,
  "S_count": 0,
  "halogen_count": 0,
  "ring_count": 1,
  "heterocycle_count": 1,
  "double_bond_count": 3,
  "triple_bond_count": 0,
  "is_amide": false,
  "is_ester": true,
  "is_alcohol": false,
  "is_amine": false,
  "is_carboxylic_acid": false,
  "is_ketone": true,
  "is_aldehyde": false,
  "is_nitrile": false,
  "is_acrylate": true,
  "is_methacrylate": true,
  "is_acrylamide": false,
  "is_methacrylamide": false,
  "is_vinyl_ether": false,
  "is_vinyl_ester": false,
  "is_styrenic": false,
  "is_ether": true,
  "is_carbonate": false,
  "is_urethane": false,
  "is_urea": true,
  "is_sulfonamide": false,
  "is_sulfonate": false,
  "is_phosphate": false,
  "is_fluorinated": false,
  "is_chlorinated": false,
  "is_brominated": false,
  "amide_count": 0,
  "ester_count": 1,
  "alcohol_count": 0,
  "amine_count": 0,
  "carboxylic_acid_count": 0,
  "ketone_count": 1,
  "aldehyde_count": 0,
  "nitrile_count": 0,
  "acrylate_count": 1,
  "methacrylate_count": 1,
  "acrylamide_count": 0,
  "methacrylamide_count": 0,
  "vinyl_ether_count": 0,
  "vinyl_ester_count": 0,
  "styrenic_count": 0,
  "ether_count": 1,
  "carbonate_count": 0,
  "urethane_count": 0,
  "urea_count": 1,
  "sulfonamide_count": 0,
  "sulfonate_count": 0,
  "phosphate_count": 0,
  "fluorinated_count": 0,
  "chlorinated_count": 0,
  "brominated_count": 0,
  "Fsp3": 0.5555555555555556,
  "Bertz_complexity": 262.7826815104895,
  "molar_refractivity": 50.74470000000002,
  "provenance": {
    "source_file": "/home/lunet/cglh4/openCOSMO-RS_Pipeline-LH/pipeline_data/input_data/acrylate_initiator_set_1.csv",
    "cleaning_timestamp": "2026-02-10T21:33:36.004406Z",
    "pipeline_version": "unknown",
    "generated_by_request": "R-10Feb26-2133-35691-overwrite_metadata",
    "generated_by_job": "J-10Feb26-2133-35692-cleaning"
  },
  "melting_temp": "243.15",
  "melting_temp_source": "Chemical book",
  "Hfus": "N/A",
  "Gfus_mode": "MyrdalYalkowsky",
  "formula_calcd": "",
  "anionic": false,
  "experimental_solubility_mol_frac": 0.083241668
}