{
  "lookup_id": "RZEKVGVHFLEQIL-UHFFFAOYSA-N",
  "inchi_key": "RZEKVGVHFLEQIL-UHFFFAOYSA-N",
  "inchi": "InChI=1S/C17H14F3N3O2S/c1-11-2-4-12(5-3-11)15-10-16(17(18,19)20)22-23(15)13-6-8-14(9-7-13)26(21,24)25/h2-10H,1H3,(H2,21,24,25)",
  "smiles": "Cc1ccc(-c2cc(C(F)(F)F)nn2-c2ccc(S(N)(=O)=O)cc2)cc1",
  "melting_temp": 430.15,
  "melting_temp_source": "157 \u00b0C (Solubility of Things)",
  "Hfus": "N/A",
  "Gfus_model": "MyrdalYalkowsky",
  "notes": "Fill in melting point, Hfus, and Gfus model if known."
}