{
  "lookup_id": "VACCAVUAMIDAGB-UHFFFAOYSA-N",
  "inchi_key": "VACCAVUAMIDAGB-UHFFFAOYSA-N",
  "inchi": "InChI=1S/C9H10N4O2S2/c1-6-11-12-9(16-6)13-17(14,15)8-4-2-7(10)3-5-8/h2-5H,10H2,1H3,(H,12,13)",
  "smiles": "Cc1nnc(NS(=O)(=O)c2ccc(N)cc2)s1",
  "melting_temp": 481.15,
  "melting_temp_source": "208 \u00b0C (Wikipedia)",
  "Hfus": "N/A",
  "Gfus_model": "MyrdalYalkowsky",
  "notes": "Fill in melting point, Hfus, and Gfus model if known."
}