{
  "metadata_version": 1,
  "inchi_key": "VFHVQBAGLAREND-UHFFFAOYSA-N",
  "smiles": "Cc1cc(C)c(C(=O)P(=O)(c2ccccc2)c2ccccc2)c(C)c1",
  "mol_name": "TPO",
  "mol_name_iupac": "N/A",
  "charge": 0,
  "multiplicity": 1,
  "rotatable_bonds": 4,
  "molecular_weight": 348.127916542,
  "heavy_atom_count": 25,
  "hbond_donors": 0,
  "hbond_acceptors": 2,
  "tpsa": 34.14,
  "logp": 4.766160000000004,
  "aromatic_rings": 3,
  "provenance": {
    "source_file": "/home/lunet/cglh4/openCOSMO-RS_Pipeline-LH/pipeline_data/input_data/acrylate_initiator_set_1.csv",
    "cleaning_timestamp": "2026-02-08T14:49:51.462574Z",
    "pipeline_version": "unknown",
    "generated_by_request": "R-08Feb26-1449-51158-gen_metadata",
    "generated_by_job": "J-08Feb26-1449-51159-cleaning"
  },
  "melting_temp": "366.15",
  "melting_temp_source": "https://doi.org/10.1021/acs.chemmater.4c00370",
  "Hfus": "N/A",
  "Gfus_mode": "MyrdalYalkowsky",
  "formula_calcd": "",
  "anionic": false,
  "experimental_solubility_mol_frac": 1.03423e-06
}