{
  "lookup_id": "VHVPQPYKVGDNFY-DFMJLFEVSA-N",
  "inchi_key": "VHVPQPYKVGDNFY-DFMJLFEVSA-N",
  "inchi": "InChI=1S/C35H38Cl2N8O4/c1-3-25(2)45-34(46)44(24-40-45)29-7-5-27(6-8-29)41-14-16-42(17-15-41)28-9-11-30(12-10-28)47-19-31-20-48-35(49-31,21-43-23-38-22-39-43)32-13-4-26(36)18-33(32)37/h4-13,18,22-25,31H,3,14-17,19-21H2,1-2H3/t25-,31+,35+/m1/s1",
  "smiles": "CCC(C)n1ncn(-c2ccc(N3CCN(c4ccc(OC[C@H]5CO[C@](Cn6cncn6)(c6ccc(Cl)cc6Cl)O5)cc4)CC3)cc2)c1=O",
  "melting_temp": 439.15,
  "melting_temp_source": "166 \u00b0C (ChemicalBook)",
  "Hfus": "N/A",
  "Gfus_model": "MyrdalYalkowsky",
  "notes": "Fill in melting point, Hfus, and Gfus model if known."
}